file 45400934 1471643009                                        
version 2
run _8to13off-4-20160819-23:25:39-13005
attr configname _8to13off
attr datetime 20160819-23:25:39
attr experiment _8to13off
attr inifile omnetpp.ini
attr iterationvars $0=8
attr iterationvars2 "$0=8, $repetition=4"
attr measurement $0=8
attr network University
attr processid 13005
attr repetition 4
attr replication #4
attr resultdir results
attr runnumber 4
attr seedset 4

vector 220  University.whostVideoConf.udpApp[0]  sentPk:vector(packetBytes)  ETV
attr interpolationmode  none
attr source  sentPk
attr title  "packets sent, vector(packetBytes)"
vector 76  University.profLaptop.udpApp[0]  sentPk:vector(packetBytes)  ETV
attr interpolationmode  none
attr source  sentPk
attr title  "packets sent, vector(packetBytes)"
vector 75  University.profLaptop.udpApp[0]  rcvdPk:vector(packetBytes)  ETV
attr interpolationmode  none
attr source  rcvdPk
attr title  "packets received, vector(packetBytes)"
vector 77  University.profLaptop.udpApp[0]  rcvdPkLifetime:vector  ETV
attr interpolationmode  none
attr source  messageAge(rcvdPk)
attr title  "received packet lifetime, vector"
attr unit  s
vector 219  University.whostVideoConf.udpApp[0]  rcvdPk:vector(packetBytes)  ETV
attr interpolationmode  none
attr source  rcvdPk
attr title  "packets received, vector(packetBytes)"
vector 221  University.whostVideoConf.udpApp[0]  rcvdPkLifetime:vector  ETV
attr interpolationmode  none
attr source  messageAge(rcvdPk)
attr title  "received packet lifetime, vector"
attr unit  s
vector 383  University.whostVideoConf.wlan[0].outputHook[0]  "thruput (bit/sec)"  ETV
vector 384  University.whostVideoConf.wlan[0].outputHook[0]  packet/sec  ETV
vector 291  University.profLaptop.ppp[0].outputHook[0]  "thruput (bit/sec)"  ETV
vector 292  University.profLaptop.ppp[0].outputHook[0]  packet/sec  ETV
vector 277  University.mainR.ppp[1].inputHook[0]  "thruput (bit/sec)"  ETV
vector 278  University.mainR.ppp[1].inputHook[0]  packet/sec  ETV
vector 271  University.mainR.ppp[0].outputHook[0]  "thruput (bit/sec)"  ETV
vector 272  University.mainR.ppp[0].outputHook[0]  packet/sec  ETV
vector 269  University.remoteR.ppp[0].inputHook[0]  "thruput (bit/sec)"  ETV
vector 270  University.remoteR.ppp[0].inputHook[0]  packet/sec  ETV
vector 259  University.remoteR.eth[0].outputHook[0]  "thruput (bit/sec)"  ETV
vector 260  University.remoteR.eth[0].outputHook[0]  packet/sec  ETV
vector 415  University.accessPoint.eth[0].inputHook[0]  "thruput (bit/sec)"  ETV
vector 416  University.accessPoint.eth[0].inputHook[0]  packet/sec  ETV
vector 403  University.accessPoint.wlan[0].outputHook[0]  "thruput (bit/sec)"  ETV
vector 404  University.accessPoint.wlan[0].outputHook[0]  packet/sec  ETV
vector 405  University.accessPoint.wlan[0].inputHook[0]  "thruput (bit/sec)"  ETV
vector 406  University.accessPoint.wlan[0].inputHook[0]  packet/sec  ETV
vector 413  University.accessPoint.eth[0].outputHook[0]  "thruput (bit/sec)"  ETV
vector 414  University.accessPoint.eth[0].outputHook[0]  packet/sec  ETV
vector 261  University.remoteR.eth[0].inputHook[0]  "thruput (bit/sec)"  ETV
vector 262  University.remoteR.eth[0].inputHook[0]  packet/sec  ETV
vector 267  University.remoteR.ppp[0].outputHook[0]  "thruput (bit/sec)"  ETV
vector 268  University.remoteR.ppp[0].outputHook[0]  packet/sec  ETV
vector 273  University.mainR.ppp[0].inputHook[0]  "thruput (bit/sec)"  ETV
vector 274  University.mainR.ppp[0].inputHook[0]  packet/sec  ETV
vector 385  University.whostVideoConf.wlan[0].inputHook[0]  "thruput (bit/sec)"  ETV
vector 386  University.whostVideoConf.wlan[0].inputHook[0]  packet/sec  ETV
vector 275  University.mainR.ppp[1].outputHook[0]  "thruput (bit/sec)"  ETV
vector 276  University.mainR.ppp[1].outputHook[0]  packet/sec  ETV
vector 293  University.profLaptop.ppp[0].inputHook[0]  "thruput (bit/sec)"  ETV
vector 294  University.profLaptop.ppp[0].inputHook[0]  packet/sec  ETV
vector 279  University.mainR.ppp[2].outputHook[0]  "thruput (bit/sec)"  ETV
vector 280  University.mainR.ppp[2].outputHook[0]  packet/sec  ETV
vector 395  University.whostFTP.wlan[0].inputHook[0]  "thruput (bit/sec)"  ETV
vector 396  University.whostFTP.wlan[0].inputHook[0]  packet/sec  ETV
vector 297  University.Server.ppp[0].inputHook[0]  "thruput (bit/sec)"  ETV
vector 298  University.Server.ppp[0].inputHook[0]  packet/sec  ETV
vector 295  University.Server.ppp[0].outputHook[0]  "thruput (bit/sec)"  ETV
vector 296  University.Server.ppp[0].outputHook[0]  packet/sec  ETV
vector 335  University.whttpStudents[3].wlan[0].inputHook[0]  "thruput (bit/sec)"  ETV
vector 336  University.whttpStudents[3].wlan[0].inputHook[0]  packet/sec  ETV
vector 281  University.mainR.ppp[2].inputHook[0]  "thruput (bit/sec)"  ETV
vector 282  University.mainR.ppp[2].inputHook[0]  packet/sec  ETV
vector 393  University.whostFTP.wlan[0].outputHook[0]  "thruput (bit/sec)"  ETV
vector 394  University.whostFTP.wlan[0].outputHook[0]  packet/sec  ETV
vector 333  University.whttpStudents[3].wlan[0].outputHook[0]  "thruput (bit/sec)"  ETV
vector 334  University.whttpStudents[3].wlan[0].outputHook[0]  packet/sec  ETV
vector 325  University.whttpStudents[2].wlan[0].inputHook[0]  "thruput (bit/sec)"  ETV
vector 326  University.whttpStudents[2].wlan[0].inputHook[0]  packet/sec  ETV
vector 323  University.whttpStudents[2].wlan[0].outputHook[0]  "thruput (bit/sec)"  ETV
vector 324  University.whttpStudents[2].wlan[0].outputHook[0]  packet/sec  ETV
vector 159  University.whttpStudents[3].tcpApp[0]  rcvdPk:vector(packetBytes)  ETV
attr interpolationmode  none
attr source  rcvdPk
attr title  "packets received, vector(packetBytes)"
vector 161  University.whttpStudents[3].tcpApp[0]  endToEndDelay:vector  ETV
attr interpolationmode  none
attr source  messageAge(rcvdPk)
attr title  "end-to-end delay, vector"
attr unit  s
vector 162  University.whttpStudents[3].tcpApp[0]  numActiveSessions:vector  ETV
attr interpolationmode  sample-hold
attr source  sum(connect)
attr title  "number of active sessions, vector"
vector 160  University.whttpStudents[3].tcpApp[0]  sentPk:vector(packetBytes)  ETV
attr interpolationmode  none
attr source  sentPk
attr title  "packets sent, vector(packetBytes)"
vector 94  University.Server.tcpApp[0]  rcvdPk:vector(packetBytes)  ETV
attr interpolationmode  none
attr source  rcvdPk
attr title  "packets received, vector(packetBytes)"
vector 96  University.Server.tcpApp[0]  endToEndDelay:vector  ETV
attr interpolationmode  none
attr source  messageAge(rcvdPk)
attr title  "end-to-end delay, vector"
attr unit  s
vector 95  University.Server.tcpApp[0]  sentPk:vector(packetBytes)  ETV
attr interpolationmode  none
attr source  sentPk
attr title  "packets sent, vector(packetBytes)"
vector 198  University.whttpStudents[6].tcpApp[0]  numActiveSessions:vector  ETV
attr interpolationmode  sample-hold
attr source  sum(connect)
attr title  "number of active sessions, vector"
vector 196  University.whttpStudents[6].tcpApp[0]  sentPk:vector(packetBytes)  ETV
attr interpolationmode  none
attr source  sentPk
attr title  "packets sent, vector(packetBytes)"
vector 365  University.whttpStudents[6].wlan[0].inputHook[0]  "thruput (bit/sec)"  ETV
vector 366  University.whttpStudents[6].wlan[0].inputHook[0]  packet/sec  ETV
vector 363  University.whttpStudents[6].wlan[0].outputHook[0]  "thruput (bit/sec)"  ETV
vector 364  University.whttpStudents[6].wlan[0].outputHook[0]  packet/sec  ETV
vector 195  University.whttpStudents[6].tcpApp[0]  rcvdPk:vector(packetBytes)  ETV
attr interpolationmode  none
attr source  rcvdPk
attr title  "packets received, vector(packetBytes)"
vector 197  University.whttpStudents[6].tcpApp[0]  endToEndDelay:vector  ETV
attr interpolationmode  none
attr source  messageAge(rcvdPk)
attr title  "end-to-end delay, vector"
attr unit  s
vector 147  University.whttpStudents[2].tcpApp[0]  rcvdPk:vector(packetBytes)  ETV
attr interpolationmode  none
attr source  rcvdPk
attr title  "packets received, vector(packetBytes)"
vector 149  University.whttpStudents[2].tcpApp[0]  endToEndDelay:vector  ETV
attr interpolationmode  none
attr source  messageAge(rcvdPk)
attr title  "end-to-end delay, vector"
attr unit  s
vector 150  University.whttpStudents[2].tcpApp[0]  numActiveSessions:vector  ETV
attr interpolationmode  sample-hold
attr source  sum(connect)
attr title  "number of active sessions, vector"
vector 97  University.Server.tcpApp[1]  rcvdPk:vector(packetBytes)  ETV
attr interpolationmode  none
attr source  rcvdPk
attr title  "packets received, vector(packetBytes)"
vector 99  University.Server.tcpApp[1]  endToEndDelay:vector  ETV
attr interpolationmode  none
attr source  messageAge(rcvdPk)
attr title  "end-to-end delay, vector"
attr unit  s
vector 98  University.Server.tcpApp[1]  sentPk:vector(packetBytes)  ETV
attr interpolationmode  none
attr source  sentPk
attr title  "packets sent, vector(packetBytes)"
vector 235  University.whostFTP.tcpApp[0]  rcvdPk:vector(packetBytes)  ETV
attr interpolationmode  none
attr source  rcvdPk
attr title  "packets received, vector(packetBytes)"
vector 237  University.whostFTP.tcpApp[0]  endToEndDelay:vector  ETV
attr interpolationmode  none
attr source  messageAge(rcvdPk)
attr title  "end-to-end delay, vector"
attr unit  s
vector 238  University.whostFTP.tcpApp[0]  numActiveSessions:vector  ETV
attr interpolationmode  sample-hold
attr source  sum(connect)
attr title  "number of active sessions, vector"
vector 236  University.whostFTP.tcpApp[0]  sentPk:vector(packetBytes)  ETV
attr interpolationmode  none
attr source  sentPk
attr title  "packets sent, vector(packetBytes)"
vector 138  University.whttpStudents[1].tcpApp[0]  numActiveSessions:vector  ETV
attr interpolationmode  sample-hold
attr source  sum(connect)
attr title  "number of active sessions, vector"
vector 355  University.whttpStudents[5].wlan[0].inputHook[0]  "thruput (bit/sec)"  ETV
vector 356  University.whttpStudents[5].wlan[0].inputHook[0]  packet/sec  ETV
vector 345  University.whttpStudents[4].wlan[0].inputHook[0]  "thruput (bit/sec)"  ETV
vector 346  University.whttpStudents[4].wlan[0].inputHook[0]  packet/sec  ETV
vector 375  University.whttpStudents[7].wlan[0].inputHook[0]  "thruput (bit/sec)"  ETV
vector 376  University.whttpStudents[7].wlan[0].inputHook[0]  packet/sec  ETV
vector 305  University.whttpStudents[0].wlan[0].inputHook[0]  "thruput (bit/sec)"  ETV
vector 306  University.whttpStudents[0].wlan[0].inputHook[0]  packet/sec  ETV
vector 315  University.whttpStudents[1].wlan[0].inputHook[0]  "thruput (bit/sec)"  ETV
vector 316  University.whttpStudents[1].wlan[0].inputHook[0]  packet/sec  ETV
vector 136  University.whttpStudents[1].tcpApp[0]  sentPk:vector(packetBytes)  ETV
attr interpolationmode  none
attr source  sentPk
attr title  "packets sent, vector(packetBytes)"
vector 313  University.whttpStudents[1].wlan[0].outputHook[0]  "thruput (bit/sec)"  ETV
vector 314  University.whttpStudents[1].wlan[0].outputHook[0]  packet/sec  ETV
vector 186  University.whttpStudents[5].tcpApp[0]  numActiveSessions:vector  ETV
attr interpolationmode  sample-hold
attr source  sum(connect)
attr title  "number of active sessions, vector"
vector 184  University.whttpStudents[5].tcpApp[0]  sentPk:vector(packetBytes)  ETV
attr interpolationmode  none
attr source  sentPk
attr title  "packets sent, vector(packetBytes)"
vector 353  University.whttpStudents[5].wlan[0].outputHook[0]  "thruput (bit/sec)"  ETV
vector 354  University.whttpStudents[5].wlan[0].outputHook[0]  packet/sec  ETV
vector 126  University.whttpStudents[0].tcpApp[0]  numActiveSessions:vector  ETV
attr interpolationmode  sample-hold
attr source  sum(connect)
attr title  "number of active sessions, vector"
vector 124  University.whttpStudents[0].tcpApp[0]  sentPk:vector(packetBytes)  ETV
attr interpolationmode  none
attr source  sentPk
attr title  "packets sent, vector(packetBytes)"
vector 303  University.whttpStudents[0].wlan[0].outputHook[0]  "thruput (bit/sec)"  ETV
vector 304  University.whttpStudents[0].wlan[0].outputHook[0]  packet/sec  ETV
vector 123  University.whttpStudents[0].tcpApp[0]  rcvdPk:vector(packetBytes)  ETV
attr interpolationmode  none
attr source  rcvdPk
attr title  "packets received, vector(packetBytes)"
vector 125  University.whttpStudents[0].tcpApp[0]  endToEndDelay:vector  ETV
attr interpolationmode  none
attr source  messageAge(rcvdPk)
attr title  "end-to-end delay, vector"
attr unit  s
vector 148  University.whttpStudents[2].tcpApp[0]  sentPk:vector(packetBytes)  ETV
attr interpolationmode  none
attr source  sentPk
attr title  "packets sent, vector(packetBytes)"
vector 183  University.whttpStudents[5].tcpApp[0]  rcvdPk:vector(packetBytes)  ETV
attr interpolationmode  none
attr source  rcvdPk
attr title  "packets received, vector(packetBytes)"
vector 185  University.whttpStudents[5].tcpApp[0]  endToEndDelay:vector  ETV
attr interpolationmode  none
attr source  messageAge(rcvdPk)
attr title  "end-to-end delay, vector"
attr unit  s
vector 174  University.whttpStudents[4].tcpApp[0]  numActiveSessions:vector  ETV
attr interpolationmode  sample-hold
attr source  sum(connect)
attr title  "number of active sessions, vector"
vector 172  University.whttpStudents[4].tcpApp[0]  sentPk:vector(packetBytes)  ETV
attr interpolationmode  none
attr source  sentPk
attr title  "packets sent, vector(packetBytes)"
vector 343  University.whttpStudents[4].wlan[0].outputHook[0]  "thruput (bit/sec)"  ETV
vector 344  University.whttpStudents[4].wlan[0].outputHook[0]  packet/sec  ETV
vector 171  University.whttpStudents[4].tcpApp[0]  rcvdPk:vector(packetBytes)  ETV
attr interpolationmode  none
attr source  rcvdPk
attr title  "packets received, vector(packetBytes)"
vector 173  University.whttpStudents[4].tcpApp[0]  endToEndDelay:vector  ETV
attr interpolationmode  none
attr source  messageAge(rcvdPk)
attr title  "end-to-end delay, vector"
attr unit  s
vector 135  University.whttpStudents[1].tcpApp[0]  rcvdPk:vector(packetBytes)  ETV
attr interpolationmode  none
attr source  rcvdPk
attr title  "packets received, vector(packetBytes)"
vector 137  University.whttpStudents[1].tcpApp[0]  endToEndDelay:vector  ETV
attr interpolationmode  none
attr source  messageAge(rcvdPk)
attr title  "end-to-end delay, vector"
attr unit  s
vector 210  University.whttpStudents[7].tcpApp[0]  numActiveSessions:vector  ETV
attr interpolationmode  sample-hold
attr source  sum(connect)
attr title  "number of active sessions, vector"
vector 208  University.whttpStudents[7].tcpApp[0]  sentPk:vector(packetBytes)  ETV
attr interpolationmode  none
attr source  sentPk
attr title  "packets sent, vector(packetBytes)"
vector 373  University.whttpStudents[7].wlan[0].outputHook[0]  "thruput (bit/sec)"  ETV
vector 374  University.whttpStudents[7].wlan[0].outputHook[0]  packet/sec  ETV
vector 207  University.whttpStudents[7].tcpApp[0]  rcvdPk:vector(packetBytes)  ETV
attr interpolationmode  none
attr source  rcvdPk
attr title  "packets received, vector(packetBytes)"
vector 209  University.whttpStudents[7].tcpApp[0]  endToEndDelay:vector  ETV
attr interpolationmode  none
attr source  messageAge(rcvdPk)
attr title  "end-to-end delay, vector"
attr unit  s
75	15128 2941086 227586 196443432 5.032016267959 3361.752016267959 83919 1400 1400 117486600 164481240000
76	2956214 2943620 227561 196443406 5.021889290129 3361.741889290129 83919 1400 1400 117486600 164481240000
77	5899834 3777850 227586 196443432 5.032016267959 3361.752016267959 83919 0.016345620143 0.121989177257 1411.4304313675 24.043300062661
94	9677684 32095 399940 196202659 11.879650286876 3359.293896770798 1003 1 1 1003 1003
95	9709779 37258 399940 196202659 11.879650286876 3359.293896770798 1003 18 6503684 819085074 1.3327589336757e+15
96	9747037 45108 399940 196202659 11.879650286876 3359.293896770798 1003 0.113174249211 0.129503072863 113.853151157 12.925181546741
97	9792145 8009 697202 195389299 16.680478758557 3346.619493006748 211 1048576 1048576 221249536 2.3199695346074e+14
98	9800154 6743 697202 195389299 16.680478758557 3346.619493006748 211 1 1 211 211
99	9806897 9640 697202 195389299 16.680478758557 3346.619493006748 211 3.488871911651 46.670875251103 3231.9272369291 57701.496022036
123	9816537 4997 1426561 192960524 31.181285735707 3308.6680587418 131 3157 6503684 102048444 1.7129599684172e+14
124	9821534 4363 1298052 196077302 29.223153866809 3356.313676912013 132 1 1 132 132
125	9825897 6059 1426561 192960524 31.181285735707 3308.6680587418 131 0.388462614498 72.841459129981 1374.7121672125 40197.605491596
126	9831956 8692 1295273 196072730 29.029696659559 3356.120644864763 263 0 1 132 132
135	9840648 4961 1859681 191665555 47.880899907807 3288.091147119997 130 773 3463738 104559703 1.580403436957e+14
136	9845609 4315 722360 191865755 18.140432336347 3293.303871154462 131 1 1 131 131
137	9849924 6008 1859681 191665555 47.880899907807 3288.091147119997 130 0.193331051442 69.762249119933 1479.1316905905 43898.996393529
138	9855932 8608 715356 191863851 17.946460977684 3293.112008068494 261 0 1 131 131
147	9864540 4794 646904 195160383 13.998562990312 3343.697610163584 126 940 3712303 93175106 1.3556633007951e+14
148	9869334 4166 1502565 195556793 32.843775294297 3349.781824845022 126 1 1 126 126
149	9873500 5815 646904 195160383 13.998562990312 3343.697610163584 126 0.193511120601 169.62751074332 1416.7889958125 63279.87242448
150	9879315 8446 646904 195545715 13.998562990312 3349.58706781867 252 -1 0 -126 126
159	9887761 4904 256582 195032425 7.247196159686 3341.914160238519 129 1977 3827581 102173864 1.5839826845361e+14
160	9892665 4247 398597 195161402 11.766475957184 3343.78095524876 129 1 1 129 129
161	9896912 5934 256582 195032425 7.247196159686 3341.914160238519 129 0.396118374118 78.859694316325 1379.8053549962 42397.120293953
162	9902846 8616 256582 195153908 7.247196159686 3343.589092121522 258 -1 0 -129 129
171	9911462 4913 1760993 196093311 36.814242867058 3356.784994055751 129 6676 3217649 91680046 1.360354254223e+14
172	9916375 4253 1632101 193585151 35.216754245059 3319.160171302331 129 1 1 129 129
173	9920628 5943 1760993 196093311 36.814242867058 3356.784994055751 129 0.585387730094 74.258753998628 1121.5211666711 32709.263185264
174	9926571 8517 1597437 196093311 35.023297106685 3356.784994055751 258 0 1 129 129
183	9935088 4221 1511060 196050908 33.447205900029 3354.648886980313 110 6267 3644277 97814176 1.5059353518799e+14
184	9939309 3638 1075776 195893401 22.863367746974 3353.229898431257 110 1 1 110 110
185	9942947 5091 1511060 196050908 33.447205900029 3354.648886980313 110 0.581987806932 40.887753706825 1486.4500167196 41130.271926693
186	9948038 7270 1073134 196050908 22.669901653632 3354.648886980313 220 0 1 110 110
195	9955308 4269 643645 196021785 13.943513993778 3354.151434483639 112 1827 5357107 102956030 2.0172209452439e+14
196	9959577 3690 466761 195810296 12.945126383961 3352.320050489804 112 1 1 112 112
197	9963267 5174 643645 196021785 13.943513993778 3354.151434483639 112 0.386549993095 91.212161294872 1519.3449047394 58567.989648476
198	9968441 7391 450394 196021785 12.741980329155 3354.151434483639 224 0 1 112 112
207	9975832 5080 2380793 196157488 62.653404057036 3357.624852354321 133 18 3909022 114517192 1.8391474524411e+14
208	9980912 4421 2358650 196200661 61.669363393419 3359.180686473467 134 1 1 134 134
209	9985333 6150 2380793 196157488 62.653404057036 3357.624852354321 133 0.194293631122 95.760762679429 1627.8562805289 52920.653502023
210	9991483 8804 2356320 196193668 61.475897235917 3358.983830519687 267 0 1 134 134
219	10000287 2996895 227644 196443123 5.038236350272 3361.718236350272 83124 1400 1400 116373600 162923040000
220	12997182 3027538 227454 196443293 5.015670647816 3361.735670647816 83919 1400 1400 117486600 164481240000
221	16024720 3826204 227644 196443123 5.038236350272 3361.718236350272 83124 0.016321372785 0.180257998622 1912.334936622 88.729914005214
235	19850924 6953 700124 195390445 16.760282569949 3346.6992525464 211 1 1 211 211
236	19857877 8227 703855 195395077 17.145902788935 3347.086047752174 211 1048576 1048576 221249536 2.3199695346074e+14
237	19866104 9851 700124 195390445 16.760282569949 3346.6992525464 211 3.568685451303 46.750688790755 3259.0416356381 58610.196368702
238	19875955 14118 700124 195392744 16.760282569949 3346.892862343444 422 -1 0 -211 211
259	19890073 139227 238214 196424761 5.037845956795 3360.358522774896 3340 282713.68429962 10778724.347006 7813463662.4472 3.6868262656696e+16
260	20029300 131174 238214 196424761 5.037845956795 3360.358522774896 3340 30 984.45873529109 814265.65528096 350428988.05674
261	20160474 142210 238384 196299310 5.056059601293 3359.776059601293 3334 285563.74454206 6633296.285561 3015849941.7675 7.0081559435718e+15
262	20302684 136230 238384 196299310 5.056059601293 3359.776059601293 3334 29.874858282455 927.73852692689 811551.69712928 341433310.98844
267	20438914 142218 238386 196299312 5.056059601293 3359.776059601293 3334 285563.74454206 6633296.285561 3015794402.5399 7.0080043997513e+15
268	20581132 136232 238386 196299312 5.056059601293 3359.776059601293 3334 29.874858282455 927.73852692689 811287.82204859 341307247.40248
269	20717364 139208 238212 196424759 5.037845956795 3360.358522774896 3340 282713.68429962 10778724.347006 7813250169.3631 3.6854715217363e+16
270	20856572 131143 238212 196424759 5.037845956795 3360.358522774896 3340 30 1006.3486157792 813988.46723099 350316028.38435
271	20987715 129768 238195 196351184 5.026889290129 3360.026889290129 3356 287200 13523264 8368844880 4.6158849660738e+16
272	21117483 116537 238195 196351184 5.026889290129 3360.026889290129 3356 30 1133 860955 417119651
273	21234020 142361 238455 196301750 5.067016267959 3359.787016267959 3334 287200 6621962.728893 3015277748.8103 7.0017033702087e+15
274	21376381 136478 238455 196301750 5.067016267959 3359.787016267959 3334 29.813689837118 886.24358412621 811281.6696684 342602982.2547
275	21512859 139883 240081 196421576 5.147016267959 3360.34775171594 3323 274198.23088392 296984.9468626 949039937.89933 2.7104517973392e+14
276	21652742 132664 240081 196421576 5.147016267959 3360.34775171594 3323 24.001945980735 25.996581483071 83074.224255894 2076850.8056862
277	21785406 127787 238193 196351182 5.026889290129 3360.026889290129 3356 285600 285600 958473600 2.7374006016e+14
278	21913193 114363 238193 196351182 5.026889290129 3360.026889290129 3356 25 25 83900 2097500
279	22027556 149238 241262 196372272 5.184707790382 3360.119103970384 3185 2730.1540641554 6506599.0816034 2010626745.7956 5.369099534579e+15
280	22176794 149235 241262 196372272 5.184707790382 3360.119103970384 3185 5.1574574031482 879.97932342865 710436.9748381 294810636.12882
281	22326029 148412 245024 196443401 5.493150957402 3360.710569254083 3166 1650.3863690074 13336403.393846 7127864367.8901 3.8964448793242e+16
282	22474441 148336 245024 196443401 5.493150957402 3360.710569254083 3166 5.1574574031482 1239.879283906 747611.48188217 355248933.59526
291	22622777 127787 238179 196350028 5.021889290129 3360.021889290129 3356 285600 285600 958473600 2.7374006016e+14
292	22750564 114363 238179 196350028 5.021889290129 3360.021889290129 3356 25 25 83900 2097500
293	22864927 139883 240087 196422590 5.152016267959 3360.35275171594 3323 274198.23088392 296984.9468626 949039937.89933 2.7104517973392e+14
294	23004810 132664 240087 196422590 5.152016267959 3360.35275171594 3323 24.001945980735 25.996581483071 83074.224255894 2076850.8056862
295	23137474 148378 243461 196442596 5.423765826483 3360.641184123164 3165 1650.3863690074 15352536.967214 7431164681.6753 4.3159592231908e+16
296	23285852 148298 243461 196442596 5.423765826483 3360.641184123164 3165 5.1574574031482 1429.2893225908 772915.40076873 386005587.62593
297	23434150 149264 243025 196394921 5.287192919957 3360.221472299959 3185 2730.1540641554 6097791.5258874 2011239074.0969 5.350146771348e+15
298	23583414 149249 243025 196394921 5.287192919957 3360.221472299959 3185 5.1574574031482 879.97932342865 710393.31026426 294312601.86834
303	23732663 61121 1312296 196434665 29.029696659559 3360.531959711544 1301 3.0545704099299 216485.71943077 20171978.671107 1826483981131.3
304	23793784 61222 1312296 196434665 29.029696659559 3360.531959711544 1301 0.009545532531031 676.51787322117 63018.757267206 17836290.762671
305	23855006 65015 715555 196434661 12.74457391835 3360.531959711544 1384 5.0896923610949 8722162.8568852 737276381.50653 2.7687396889516e+15
306	23920021 65218 715555 196434661 12.74457391835 3360.531959711544 1384 0.022721840897745 726.84690474043 61930.250500441 19267726.6793
313	23985239 66540 822069 194755971 17.946460977684 3335.738323640471 1418 13.313780795774 195797.44499523 21200357.94271 1890870025116.8
314	24051779 66598 822069 194755971 17.946460977684 3335.738323640471 1418 0.041605564986794 611.86701561011 66232.721511467 18465073.005877
315	24118377 71755 715585 196244772 12.744573896065 3359.17921633507 1529 7.1218975646432 7181707.4925827 784195876.55516 2.8702603022027e+15
316	24190132 71953 715585 196244772 12.744573896065 3359.17921633507 1529 0.031794185556443 598.4756243819 65853.89804915 19979459.369564
323	24262085 61932 249973 196320577 5.714763741641 3359.768225876875 1321 6.742886400657 188955.21122081 18447570.671545 1714705777764.7
324	24324017 62058 249973 196320577 5.714763741641 3359.768225876875 1321 0.021071520002053 590.48503506503 57631.172967647 16744704.450555
325	24386075 66364 249969 196320573 5.714763741641 3359.768225876875 1415 7.0860838778307 7234895.1697722 667910430.37588 2.6696836375452e+15
326	24452439 66539 249969 196320573 5.714763741641 3359.768225876875 1415 0.03163430302603 602.90793081435 56140.621346596 18577295.603244
333	24518978 59046 249704 196321392 5.698151264677 3359.721507842537 1259 8.7506566025422 208022.29502462 20167880.249381 1875083788126.3
334	24578024 59135 249704 196321392 5.698151264677 3359.721507842537 1259 0.027345801882944 650.06967195195 63005.873474575 18310852.315392
335	24637159 63439 243665 196321388 5.310976316869 3359.721507842537 1361 5.3882209937759 7199740.0839417 698315713.07479 2.6608926005703e+15
336	24700598 64058 243665 196321388 5.310976316869 3359.721507842537 1361 0.024054558007928 600.9596077079 58690.502140372 18522930.074622
343	24764656 49714 1705405 196099822 35.023297106685 3355.81634228722 1065 5.7996534413164 231277.18067587 17463047.245497 1702952918671.6
344	24814370 49993 1705405 196099822 35.023297106685 3355.81634228722 1065 0.018123917004114 722.7411896121 54552.973237326 16629896.078763
345	24864363 54716 715525 196244784 12.744573901131 3359.179216340136 1167 7.0654559810171 8637422.2343031 614995530.30978 2.4628277020301e+15
346	24919079 54876 715525 196244784 12.744573901131 3359.179216340136 1167 0.031542214200969 719.78518619193 51712.921219064 17146911.205809
353	24973955 65546 1090748 196023073 22.669901653632 3353.036420642297 1398 7.5995328246328 218081.9935646 19309318.355754 1839816979567.6
354	25039501 65667 1090748 196023073 22.669901653632 3353.036420642297 1398 0.023748540076978 681.50622988939 60326.849341182 17967449.050575
355	25105168 69531 715511 196244766 12.744573889873 3359.179216328878 1483 5.5125686753654 7716503.4652037 705747813.18147 2.852241450039e+15
356	25174699 69754 715511 196244766 12.744573889873 3359.179216328878 1483 0.024609681586453 643.04195543364 59257.213070604 19847032.526677
363	25244453 62342 643224 196029027 12.741980329155 3353.290628878811 1331 10.799186705951 190627.41315447 20069562.858834 1680252159386.5
364	25306795 62466 643224 196029027 12.741980329155 3353.290628878811 1331 0.033747458456097 595.71066610772 62702.850971724 16408348.852806
365	25369261 66480 643220 196244824 12.744702918679 3359.179216357684 1419 6.4626525953378 7265606.0570619 727726588.45588 2.5231547044082e+15
366	25435741 66666 643220 196244824 12.744702918679 3359.179216357684 1419 0.028851127657758 605.46717142183 61089.546050432 17557022.468634
373	25502407 69322 2377644 196379257 61.475897235917 3360.149268811828 1475 4.0168100265051 259739.59461581 23152776.735709 2257070005197.8
374	25571729 69403 2377644 196379257 61.475897235917 3360.149268811828 1475 0.012552531332828 811.68623317442 72333.369292035 22041412.9258
375	25641132 72868 715543 196412145 12.744573905913 3360.302647933463 1551 7.3696138583983 9735508.6250506 810345084.71229 3.2053881722927e+15
376	25714000 73000 715543 196412145 12.744573905913 3360.302647933463 1551 0.03290006186785 811.68623317442 68046.083185538 22307273.10514
383	25787000 127787 238063 196348731 5.015670647816 3360.015670647816 3356 285600 285824 958479648 2.7374351613235e+14
384	25914787 114363 238063 196348731 5.015670647816 3360.015670647816 3356 25 26 83927 2098877
385	26029150 137703 238519 196320048 5.078236350272 3359.838236350272 3325 193006.58068742 330535.99027697 941003103.83394 2.6698088058399e+14
386	26166853 129437 238519 196320048 5.078236350272 3359.838236350272 3325 16.894833743647 29.431201920577 82631.406585367 2058979.0301177
393	26296290 133775 245175 196320794 5.366568416009 3359.769047918702 2852 214.55541821571 7437291.5543999 2038195979.5841 6.9988121288893e+15
394	26430065 133812 245175 196320794 5.366568416009 3359.769047918702 2852 0.095028439879883 619.77429619999 170988.16849087 48733423.258075
395	26563877 134018 242261 196320790 5.172982411917 3359.769047918702 2857 34.035415226208 156074.95240004 45938942.886433 3357454785691.9
396	26697895 134058 242261 196320790 5.172982411917 3359.769047918702 2857 0.15194381797414 487.73422625013 143590.34656318 32793326.686382
403	26831953 139207 238221 196424768 5.037962326795 3360.358644904896 3340 287355.00880778 10911050.186261 7938173090.3851 3.7878835192087e+16
404	26971160 131148 238221 196424768 5.037962326795 3360.358644904896 3340 30 1006.3486157792 814244.7451 350369523.66439
405	27102308 142273 238347 196299291 5.055944671293 3359.775944671293 3334 288160 6550412.1174549 3125307008.3182 7.2049736058857e+15