file 44912956 1471644049                                        
version 2
run _8to13off-8-20160819-23:43:29-13474
attr configname _8to13off
attr datetime 20160819-23:43:29
attr experiment _8to13off
attr inifile omnetpp.ini
attr iterationvars $0=8
attr iterationvars2 "$0=8, $repetition=8"
attr measurement $0=8
attr network University
attr processid 13474
attr repetition 8
attr replication #8
attr resultdir results
attr runnumber 8
attr seedset 8

vector 220  University.whostVideoConf.udpApp[0]  sentPk:vector(packetBytes)  ETV
attr interpolationmode  none
attr source  sentPk
attr title  "packets sent, vector(packetBytes)"
vector 75  University.profLaptop.udpApp[0]  rcvdPk:vector(packetBytes)  ETV
attr interpolationmode  none
attr source  rcvdPk
attr title  "packets received, vector(packetBytes)"
vector 77  University.profLaptop.udpApp[0]  rcvdPkLifetime:vector  ETV
attr interpolationmode  none
attr source  messageAge(rcvdPk)
attr title  "received packet lifetime, vector"
attr unit  s
vector 76  University.profLaptop.udpApp[0]  sentPk:vector(packetBytes)  ETV
attr interpolationmode  none
attr source  sentPk
attr title  "packets sent, vector(packetBytes)"
vector 219  University.whostVideoConf.udpApp[0]  rcvdPk:vector(packetBytes)  ETV
attr interpolationmode  none
attr source  rcvdPk
attr title  "packets received, vector(packetBytes)"
vector 221  University.whostVideoConf.udpApp[0]  rcvdPkLifetime:vector  ETV
attr interpolationmode  none
attr source  messageAge(rcvdPk)
attr title  "received packet lifetime, vector"
attr unit  s
vector 383  University.whostVideoConf.wlan[0].outputHook[0]  "thruput (bit/sec)"  ETV
vector 384  University.whostVideoConf.wlan[0].outputHook[0]  packet/sec  ETV
vector 277  University.mainR.ppp[1].inputHook[0]  "thruput (bit/sec)"  ETV
vector 278  University.mainR.ppp[1].inputHook[0]  packet/sec  ETV
vector 271  University.mainR.ppp[0].outputHook[0]  "thruput (bit/sec)"  ETV
vector 272  University.mainR.ppp[0].outputHook[0]  packet/sec  ETV
vector 269  University.remoteR.ppp[0].inputHook[0]  "thruput (bit/sec)"  ETV
vector 270  University.remoteR.ppp[0].inputHook[0]  packet/sec  ETV
vector 259  University.remoteR.eth[0].outputHook[0]  "thruput (bit/sec)"  ETV
vector 260  University.remoteR.eth[0].outputHook[0]  packet/sec  ETV
vector 415  University.accessPoint.eth[0].inputHook[0]  "thruput (bit/sec)"  ETV
vector 416  University.accessPoint.eth[0].inputHook[0]  packet/sec  ETV
vector 403  University.accessPoint.wlan[0].outputHook[0]  "thruput (bit/sec)"  ETV
vector 404  University.accessPoint.wlan[0].outputHook[0]  packet/sec  ETV
vector 291  University.profLaptop.ppp[0].outputHook[0]  "thruput (bit/sec)"  ETV
vector 292  University.profLaptop.ppp[0].outputHook[0]  packet/sec  ETV
vector 405  University.accessPoint.wlan[0].inputHook[0]  "thruput (bit/sec)"  ETV
vector 406  University.accessPoint.wlan[0].inputHook[0]  packet/sec  ETV
vector 413  University.accessPoint.eth[0].outputHook[0]  "thruput (bit/sec)"  ETV
vector 414  University.accessPoint.eth[0].outputHook[0]  packet/sec  ETV
vector 261  University.remoteR.eth[0].inputHook[0]  "thruput (bit/sec)"  ETV
vector 262  University.remoteR.eth[0].inputHook[0]  packet/sec  ETV
vector 267  University.remoteR.ppp[0].outputHook[0]  "thruput (bit/sec)"  ETV
vector 268  University.remoteR.ppp[0].outputHook[0]  packet/sec  ETV
vector 273  University.mainR.ppp[0].inputHook[0]  "thruput (bit/sec)"  ETV
vector 274  University.mainR.ppp[0].inputHook[0]  packet/sec  ETV
vector 275  University.mainR.ppp[1].outputHook[0]  "thruput (bit/sec)"  ETV
vector 276  University.mainR.ppp[1].outputHook[0]  packet/sec  ETV
vector 293  University.profLaptop.ppp[0].inputHook[0]  "thruput (bit/sec)"  ETV
vector 294  University.profLaptop.ppp[0].inputHook[0]  packet/sec  ETV
vector 279  University.mainR.ppp[2].outputHook[0]  "thruput (bit/sec)"  ETV
vector 280  University.mainR.ppp[2].outputHook[0]  packet/sec  ETV
vector 297  University.Server.ppp[0].inputHook[0]  "thruput (bit/sec)"  ETV
vector 298  University.Server.ppp[0].inputHook[0]  packet/sec  ETV
vector 385  University.whostVideoConf.wlan[0].inputHook[0]  "thruput (bit/sec)"  ETV
vector 386  University.whostVideoConf.wlan[0].inputHook[0]  packet/sec  ETV
vector 295  University.Server.ppp[0].outputHook[0]  "thruput (bit/sec)"  ETV
vector 296  University.Server.ppp[0].outputHook[0]  packet/sec  ETV
vector 281  University.mainR.ppp[2].inputHook[0]  "thruput (bit/sec)"  ETV
vector 282  University.mainR.ppp[2].inputHook[0]  packet/sec  ETV
vector 393  University.whostFTP.wlan[0].outputHook[0]  "thruput (bit/sec)"  ETV
vector 394  University.whostFTP.wlan[0].outputHook[0]  packet/sec  ETV
vector 395  University.whostFTP.wlan[0].inputHook[0]  "thruput (bit/sec)"  ETV
vector 396  University.whostFTP.wlan[0].inputHook[0]  packet/sec  ETV
vector 315  University.whttpStudents[1].wlan[0].inputHook[0]  "thruput (bit/sec)"  ETV
vector 316  University.whttpStudents[1].wlan[0].inputHook[0]  packet/sec  ETV
vector 313  University.whttpStudents[1].wlan[0].outputHook[0]  "thruput (bit/sec)"  ETV
vector 314  University.whttpStudents[1].wlan[0].outputHook[0]  packet/sec  ETV
vector 126  University.whttpStudents[0].tcpApp[0]  numActiveSessions:vector  ETV
attr interpolationmode  sample-hold
attr source  sum(connect)
attr title  "number of active sessions, vector"
vector 124  University.whttpStudents[0].tcpApp[0]  sentPk:vector(packetBytes)  ETV
attr interpolationmode  none
attr source  sentPk
attr title  "packets sent, vector(packetBytes)"
vector 94  University.Server.tcpApp[0]  rcvdPk:vector(packetBytes)  ETV
attr interpolationmode  none
attr source  rcvdPk
attr title  "packets received, vector(packetBytes)"
vector 96  University.Server.tcpApp[0]  endToEndDelay:vector  ETV
attr interpolationmode  none
attr source  messageAge(rcvdPk)
attr title  "end-to-end delay, vector"
attr unit  s
vector 95  University.Server.tcpApp[0]  sentPk:vector(packetBytes)  ETV
attr interpolationmode  none
attr source  sentPk
attr title  "packets sent, vector(packetBytes)"
vector 162  University.whttpStudents[3].tcpApp[0]  numActiveSessions:vector  ETV
attr interpolationmode  sample-hold
attr source  sum(connect)
attr title  "number of active sessions, vector"
vector 160  University.whttpStudents[3].tcpApp[0]  sentPk:vector(packetBytes)  ETV
attr interpolationmode  none
attr source  sentPk
attr title  "packets sent, vector(packetBytes)"
vector 303  University.whttpStudents[0].wlan[0].outputHook[0]  "thruput (bit/sec)"  ETV
vector 304  University.whttpStudents[0].wlan[0].outputHook[0]  packet/sec  ETV
vector 305  University.whttpStudents[0].wlan[0].inputHook[0]  "thruput (bit/sec)"  ETV
vector 306  University.whttpStudents[0].wlan[0].inputHook[0]  packet/sec  ETV
vector 335  University.whttpStudents[3].wlan[0].inputHook[0]  "thruput (bit/sec)"  ETV
vector 336  University.whttpStudents[3].wlan[0].inputHook[0]  packet/sec  ETV
vector 333  University.whttpStudents[3].wlan[0].outputHook[0]  "thruput (bit/sec)"  ETV
vector 334  University.whttpStudents[3].wlan[0].outputHook[0]  packet/sec  ETV
vector 123  University.whttpStudents[0].tcpApp[0]  rcvdPk:vector(packetBytes)  ETV
attr interpolationmode  none
attr source  rcvdPk
attr title  "packets received, vector(packetBytes)"
vector 125  University.whttpStudents[0].tcpApp[0]  endToEndDelay:vector  ETV
attr interpolationmode  none
attr source  messageAge(rcvdPk)
attr title  "end-to-end delay, vector"
attr unit  s
vector 186  University.whttpStudents[5].tcpApp[0]  numActiveSessions:vector  ETV
attr interpolationmode  sample-hold
attr source  sum(connect)
attr title  "number of active sessions, vector"
vector 345  University.whttpStudents[4].wlan[0].inputHook[0]  "thruput (bit/sec)"  ETV
vector 346  University.whttpStudents[4].wlan[0].inputHook[0]  packet/sec  ETV
vector 375  University.whttpStudents[7].wlan[0].inputHook[0]  "thruput (bit/sec)"  ETV
vector 376  University.whttpStudents[7].wlan[0].inputHook[0]  packet/sec  ETV
vector 365  University.whttpStudents[6].wlan[0].inputHook[0]  "thruput (bit/sec)"  ETV
vector 366  University.whttpStudents[6].wlan[0].inputHook[0]  packet/sec  ETV
vector 325  University.whttpStudents[2].wlan[0].inputHook[0]  "thruput (bit/sec)"  ETV
vector 326  University.whttpStudents[2].wlan[0].inputHook[0]  packet/sec  ETV
vector 355  University.whttpStudents[5].wlan[0].inputHook[0]  "thruput (bit/sec)"  ETV
vector 356  University.whttpStudents[5].wlan[0].inputHook[0]  packet/sec  ETV
vector 184  University.whttpStudents[5].tcpApp[0]  sentPk:vector(packetBytes)  ETV
attr interpolationmode  none
attr source  sentPk
attr title  "packets sent, vector(packetBytes)"
vector 353  University.whttpStudents[5].wlan[0].outputHook[0]  "thruput (bit/sec)"  ETV
vector 354  University.whttpStudents[5].wlan[0].outputHook[0]  packet/sec  ETV
vector 150  University.whttpStudents[2].tcpApp[0]  numActiveSessions:vector  ETV
attr interpolationmode  sample-hold
attr source  sum(connect)
attr title  "number of active sessions, vector"
vector 148  University.whttpStudents[2].tcpApp[0]  sentPk:vector(packetBytes)  ETV
attr interpolationmode  none
attr source  sentPk
attr title  "packets sent, vector(packetBytes)"
vector 147  University.whttpStudents[2].tcpApp[0]  rcvdPk:vector(packetBytes)  ETV
attr interpolationmode  none
attr source  rcvdPk
attr title  "packets received, vector(packetBytes)"
vector 149  University.whttpStudents[2].tcpApp[0]  endToEndDelay:vector  ETV
attr interpolationmode  none
attr source  messageAge(rcvdPk)
attr title  "end-to-end delay, vector"
attr unit  s
vector 323  University.whttpStudents[2].wlan[0].outputHook[0]  "thruput (bit/sec)"  ETV
vector 324  University.whttpStudents[2].wlan[0].outputHook[0]  packet/sec  ETV
vector 97  University.Server.tcpApp[1]  rcvdPk:vector(packetBytes)  ETV
attr interpolationmode  none
attr source  rcvdPk
attr title  "packets received, vector(packetBytes)"
vector 99  University.Server.tcpApp[1]  endToEndDelay:vector  ETV
attr interpolationmode  none
attr source  messageAge(rcvdPk)
attr title  "end-to-end delay, vector"
attr unit  s
vector 98  University.Server.tcpApp[1]  sentPk:vector(packetBytes)  ETV
attr interpolationmode  none
attr source  sentPk
attr title  "packets sent, vector(packetBytes)"
vector 235  University.whostFTP.tcpApp[0]  rcvdPk:vector(packetBytes)  ETV
attr interpolationmode  none
attr source  rcvdPk
attr title  "packets received, vector(packetBytes)"
vector 237  University.whostFTP.tcpApp[0]  endToEndDelay:vector  ETV
attr interpolationmode  none
attr source  messageAge(rcvdPk)
attr title  "end-to-end delay, vector"
attr unit  s
vector 238  University.whostFTP.tcpApp[0]  numActiveSessions:vector  ETV
attr interpolationmode  sample-hold
attr source  sum(connect)
attr title  "number of active sessions, vector"
vector 236  University.whostFTP.tcpApp[0]  sentPk:vector(packetBytes)  ETV
attr interpolationmode  none
attr source  sentPk
attr title  "packets sent, vector(packetBytes)"
vector 159  University.whttpStudents[3].tcpApp[0]  rcvdPk:vector(packetBytes)  ETV
attr interpolationmode  none
attr source  rcvdPk
attr title  "packets received, vector(packetBytes)"
vector 161  University.whttpStudents[3].tcpApp[0]  endToEndDelay:vector  ETV
attr interpolationmode  none
attr source  messageAge(rcvdPk)
attr title  "end-to-end delay, vector"
attr unit  s
vector 198  University.whttpStudents[6].tcpApp[0]  numActiveSessions:vector  ETV
attr interpolationmode  sample-hold
attr source  sum(connect)
attr title  "number of active sessions, vector"
vector 196  University.whttpStudents[6].tcpApp[0]  sentPk:vector(packetBytes)  ETV
attr interpolationmode  none
attr source  sentPk
attr title  "packets sent, vector(packetBytes)"
vector 210  University.whttpStudents[7].tcpApp[0]  numActiveSessions:vector  ETV
attr interpolationmode  sample-hold
attr source  sum(connect)
attr title  "number of active sessions, vector"
vector 208  University.whttpStudents[7].tcpApp[0]  sentPk:vector(packetBytes)  ETV
attr interpolationmode  none
attr source  sentPk
attr title  "packets sent, vector(packetBytes)"
vector 363  University.whttpStudents[6].wlan[0].outputHook[0]  "thruput (bit/sec)"  ETV
vector 364  University.whttpStudents[6].wlan[0].outputHook[0]  packet/sec  ETV
vector 373  University.whttpStudents[7].wlan[0].outputHook[0]  "thruput (bit/sec)"  ETV
vector 374  University.whttpStudents[7].wlan[0].outputHook[0]  packet/sec  ETV
vector 135  University.whttpStudents[1].tcpApp[0]  rcvdPk:vector(packetBytes)  ETV
attr interpolationmode  none
attr source  rcvdPk
attr title  "packets received, vector(packetBytes)"
vector 137  University.whttpStudents[1].tcpApp[0]  endToEndDelay:vector  ETV
attr interpolationmode  none
attr source  messageAge(rcvdPk)
attr title  "end-to-end delay, vector"
attr unit  s
vector 138  University.whttpStudents[1].tcpApp[0]  numActiveSessions:vector  ETV
attr interpolationmode  sample-hold
attr source  sum(connect)
attr title  "number of active sessions, vector"
vector 183  University.whttpStudents[5].tcpApp[0]  rcvdPk:vector(packetBytes)  ETV
attr interpolationmode  none
attr source  rcvdPk
attr title  "packets received, vector(packetBytes)"
vector 185  University.whttpStudents[5].tcpApp[0]  endToEndDelay:vector  ETV
attr interpolationmode  none
attr source  messageAge(rcvdPk)
attr title  "end-to-end delay, vector"
attr unit  s
vector 174  University.whttpStudents[4].tcpApp[0]  numActiveSessions:vector  ETV
attr interpolationmode  sample-hold
attr source  sum(connect)
attr title  "number of active sessions, vector"
vector 172  University.whttpStudents[4].tcpApp[0]  sentPk:vector(packetBytes)  ETV
attr interpolationmode  none
attr source  sentPk
attr title  "packets sent, vector(packetBytes)"
vector 343  University.whttpStudents[4].wlan[0].outputHook[0]  "thruput (bit/sec)"  ETV
vector 344  University.whttpStudents[4].wlan[0].outputHook[0]  packet/sec  ETV
vector 136  University.whttpStudents[1].tcpApp[0]  sentPk:vector(packetBytes)  ETV
attr interpolationmode  none
attr source  sentPk
attr title  "packets sent, vector(packetBytes)"
vector 171  University.whttpStudents[4].tcpApp[0]  rcvdPk:vector(packetBytes)  ETV
attr interpolationmode  none
attr source  rcvdPk
attr title  "packets received, vector(packetBytes)"
vector 173  University.whttpStudents[4].tcpApp[0]  endToEndDelay:vector  ETV
attr interpolationmode  none
attr source  messageAge(rcvdPk)
attr title  "end-to-end delay, vector"
attr unit  s
vector 195  University.whttpStudents[6].tcpApp[0]  rcvdPk:vector(packetBytes)  ETV
attr interpolationmode  none
attr source  rcvdPk
attr title  "packets received, vector(packetBytes)"
vector 197  University.whttpStudents[6].tcpApp[0]  endToEndDelay:vector  ETV
attr interpolationmode  none
attr source  messageAge(rcvdPk)
attr title  "end-to-end delay, vector"
attr unit  s
vector 207  University.whttpStudents[7].tcpApp[0]  rcvdPk:vector(packetBytes)  ETV
attr interpolationmode  none
attr source  rcvdPk
attr title  "packets received, vector(packetBytes)"
vector 209  University.whttpStudents[7].tcpApp[0]  endToEndDelay:vector  ETV
attr interpolationmode  none
attr source  messageAge(rcvdPk)
attr title  "end-to-end delay, vector"
attr unit  s
75	15128 2972779 241206 248153752 5.017395019461 3386.258778578379 84457 1400 1400 118239800 165535720000
76	2987907 2978265 246062 248157924 5.038741626599 3386.278741626599 84532 1400 1400 118344800 165682720000
77	5966172 3755113 241206 248153752 5.017395019461 3386.258778578379 84457 0.01634561935 0.192830577848 1429.4303031513 24.778612279676
94	9721285 39402 371735 247717508 7.267574205024 3380.491193897512 1227 1 1 1227 1227
95	9760687 45767 371735 247717508 7.267574205024 3380.491193897512 1227 151 5742314 1019778488 1.7160263361955e+15
96	9806454 55344 371735 247717508 7.267574205024 3380.491193897512 1227 0.072818321663 0.082990128236 89.704043718129 6.5590588852736
97	9861798 11523 978460 248134639 15.358676344997 3385.962867212666 302 1048576 1048576 316669952 3.3205251158835e+14
98	9873321 9711 978460 248134639 15.358676344997 3385.962867212666 302 1 1 302 302
99	9883032 13804 978460 248134639 15.358676344997 3385.962867212666 302 2.772372849706 22.319230848012 3292.9446031993 38792.65966543
123	9896836 5499 628567 248112049 9.362425649183 3384.893552011702 144 5606 4083357 113730408 1.8336366140732e+14
124	9902335 4744 368364 246901640 7.194746813068 3371.037105391092 144 1 1 144 144
125	9907079 6651 628567 248112049 9.362425649183 3384.893552011702 144 0.25311994223 32.766196331759 952.93272301 15774.284879894
126	9913730 9509 365695 248112049 7.110583827685 3384.893552011702 288 0 1 144 144
135	9923239 5616 1652808 248063417 24.570944652238 3383.040093122917 147 2594 4966589 114973602 2.009107209029e+14
136	9928855 4834 2324434 246677057 34.286087200219 3368.235136305317 146 1 1 146 146
137	9933689 6797 1652808 248063417 24.570944652238 3383.040093122917 147 0.168720563536 48.645585551608 998.92937230601 17771.458559257
138	9940486 9840 1652808 248063417 24.570944652238 3383.040093122917 293 -1 0 -147 147
147	9950326 5847 969008 247645930 15.140547954902 3377.635822356003 153 11355 5742314 125055679 2.2257169135154e+14
148	9956173 5060 877046 245706388 14.286718786793 3356.470321256227 153 1 1 153 153
149	9961233 7064 969008 247645930 15.140547954902 3377.635822356003 153 0.337281015911 32.17051363304 1081.0049927521 17155.914315212
150	9968297 10111 875161 247645930 14.202537789974 3377.635822356003 306 0 1 153 153
159	9978408 5942 1109009 245610024 17.47795396866 3354.828933419176 155 8958 3815813 124097189 1.767571712981e+14
160	9984350 5135 423583 244341829 7.820575703094 3337.848502304611 155 1 1 155 155
161	9989485 7178 1109009 245610024 17.47795396866 3354.828933419176 155 0.256206027866 28.363598593795 1098.6958556755 16351.759581219
162	9996663 10270 411218 245610024 7.721283868722 3354.828933419176 310 0 1 155 155
171	10006933 6158 2613575 245776601 37.440755693001 3356.820699025913 160 151 4941812 145094326 2.6306633961901e+14
172	10013091 5350 2003424 246471632 30.930423072229 3366.053206573793 161 1 1 161 161
173	10018441 7434 2613575 245776601 37.440755693001 3356.820699025913 160 0.088630450411 32.912074712447 1191.8682516797 20119.380531536
174	10025875 10668 2001067 246469546 30.84626018057 3365.970628695564 321 0 1 161 161
183	10036543 6302 1750249 245157180 27.044051015121 3347.226769035559 165 312 4131749 135327120 2.3010296901788e+14
184	10042845 5488 680145 247715013 12.241509304114 3380.418330510539 166 1 1 166 166
185	10048333 7636 1750249 245157180 27.044051015121 3347.226769035559 165 0.083755675709 37.183962000967 1159.5826067766 18772.681645557
186	10055969 10933 677003 247712256 12.157235772997 3380.3345656918 331 0 1 166 166
195	10066902 5701 2650462 248048352 39.068865240359 3382.610407464904 149 5840 4212954 119212009 1.7914428692823e+14
196	10072603 4937 1125219 246036712 18.220336991362 3359.917621559792 149 1 1 149 149
197	10077540 6903 2650462 248048352 39.068865240359 3382.610407464904 149 0.253358331125 32.828004540416 1106.6785975539 18897.930338249
198	10084443 9871 1123071 248048352 18.136183031531 3382.610407464904 298 0 1 149 149
207	10094314 5832 2911154 247406510 44.0972597605 3375.753910261991 152 9579 5487394 139984136 2.5731311735103e+14
208	10100146 5069 1152588 247710970 18.775588586992 3380.283101189763 153 1 1 153 153
209	10105215 7044 2911154 247406510 44.0972597605 3375.753910261991 152 0.337491178287 36.921619512167 1174.1535624916 18918.900559458
210	10112259 10092 1142713 247708785 18.691443647889 3380.198931835632 305 0 1 153 153
219	10122351 3017186 273044 248155757 5.161406753447 3386.268406428624 83343 1400 1400 116680200 163352280000
220	13139537 3062831 237612 248158363 5.000851252945 3386.280851252945 84533 1400 1400 118346200 165684680000
221	16202368 3786923 273044 248155757 5.161406753447 3386.268406428624 83343 0.016322415449 0.175114788704 2034.8924155449 105.44457847981
235	19989291 10015 979694 248134843 15.369791056547 3385.973751448908 302 1 1 302 302
236	19999306 11807 983528 248141412 15.536768789349 3386.14078318171 302 1048576 1048576 316669952 3.3205251158835e+14
237	20011113 14124 979694 248134843 15.369791056547 3385.973751448908 302 2.783854463228 22.331232808289 3324.0816879316 39563.904898874
238	20025237 20327 979694 248137551 15.369791056547 3386.057480272963 604 -1 0 -302 302
259	20045564 145355 343430 248127250 5.015599651078 3384.574698293265 3365 280438.94866109 11191020.572317 9628263836.9209 4.9716648109784e+16
260	20190919 139424 343430 248127250 5.015599651078 3384.574698293265 3365 25 1003.0058595127 1030607.7926242 486065284.78831
261	20330343 146971 345309 248158540 5.04144614184 3385.281240205629 3363 285600 6602528 3856319924.8051 8.9937224257844e+15
262	20477314 142203 345309 248158540 5.04144614184 3385.281240205629 3363 25 943.09233032511 1028907.2755136 479334611.55832
267	20619517 146966 345311 248158542 5.04144614184 3385.281240205629 3363 285600 6602528 3856261315.4227 8.9935892233294e+15
268	20766483 142191 345311 248158542 5.04144614184 3385.281240205629 3363 25 943.09233032511 1028640.7704344 479160207.29913
269	20908674 145321 343428 248127248 5.015599651078 3384.574698293265 3365 280438.94866109 11191020.572317 9628197420.1838 4.9717230062703e+16
270	21053995 139372 343428 248127248 5.015599651078 3384.574698293265 3365 25 1003.0058595127 1030338.2173602 485913314.94619
271	21193367 131497 341734 248137001 5.003741626599 3385.003741626599 3381 285600 12890296 10477086016 6.2516251208534e+16
272	21324864 118255 341734 248137001 5.003741626599 3385.003741626599 3381 25 1145 1102134 579762724
273	21443119 147327 345487 248160614 5.053808973874 3385.292196872295 3363 285600 6575768.8132437 3855320956.7206 8.9773572064935e+15
274	21590446 142727 345487 248160614 5.053808973874 3385.292196872295 3363 25 942.90911207795 1028537.1620036 479589910.14398
275	21733173 142570 345489 248127536 5.053808973874 3384.572295981224 3346 159936 321931.82741914 954791790.69536 2.7255304562977e+14
276	21875743 135837 345489 248127536 5.053808973874 3384.572295981224 3346 14 28.180307021983 83577.712770953 2088404.6451743
277	22011580 129265 341732 248136999 5.003741626599 3385.003741626599 3381 285600 285600 965613600 2.7577924416e+14
278	22140845 115741 341732 248136999 5.003741626599 3385.003741626599 3381 25 25 84525 2113125
279	22256586 156395 347472 248133591 5.067650114463 3384.888729054467 3326 1525.8417837954 6077346.4778207 2870711237.906 6.9662632520377e+15
280	22412981 156344 347472 248133591 5.067650114463 3384.888729054467 3326 3.0531195652659 910.41860361253 937398.58005438 426920108.70008
281	22569325 155977 348880 248130981 5.176690618068 3384.782595739056 3318 653.79509203406 12094345.11677 9344533610.4357 5.5714600581139e+16
282	22725302 155917 348880 248130981 5.176690618068 3384.782595739056 3318 2.0431096626064 1023.3024906743 999992.69865708 518418073.3594
291	22881219 129265 344995 248137126 5.038741626599 3385.038741626599 3381 285600 285600 965613600 2.7577924416e+14
292	23010484 115741 344995 248137126 5.038741626599 3385.038741626599 3381 25 25 84525 2113125
293	23126225 142570 345994 248127646 5.058808973874 3384.577295981224 3346 159936 321931.82741914 954791790.69536 2.7255304562977e+14
294	23268795 135837 345994 248127646 5.058808973874 3384.577295981224 3346 14 28.180307021983 83577.712770953 2088404.6451743
295	23404632 156021 348875 248130976 5.17635155812 3384.782256679108 3318 653.79523451677 19975629.345227 9836253760.7101 6.3669085150292e+16
296	23560653 155963 348875 248130976 5.17635155812 3384.782256679108 3318 2.0431101078649 1754.235552365 1040998.3991864 579117496.50454
297	23716616 156420 348672 248130972 5.129662525982 3384.782256679108 3326 1525.7473684713 6077346.4778207 2870862304.1779 6.9652399634487e+15
298	23873036 156371 348672 248130972 5.129662525982 3384.782256679108 3326 3.0532278481041 910.31234698624 937488.44610346 427471943.64063
303	24029407 43089 486007 248096988 7.110583827685 3383.290968898012 918 6.0636295243475 175671.21863282 22321397.187768 1746855128979.2
304	24072496 43189 486007 248096988 7.110583827685 3383.290968898012 918 0.018948842263586 548.97255822756 69738.777444 17051302.390129
305	24115685 49547 486230 248101231 7.111845887977 3383.460413391833 1054 3.6857508029536 6959199.8799699 816135700.67192 2.4819502280018e+15
306	24165232 49764 486230 248101231 7.111845887977 3383.460413391833 1054 0.016454244656043 580.41617667438 68535.774673644 17390201.837634
313	24214996 45460 364068 248017033 6.007841425051 3381.428273887018 967 5.2203837572625 270131.81212887 22275399.620397 2015762254438.2
314	24260456 45629 364068 248017033 6.007841425051 3381.428273887018 967 0.016313699241445 844.16191290273 69592.307661499 19675995.432206
315	24306085 50616 364064 248033264 6.007841425051 3381.514532863959 1074 5.963397506724 10389399.988942 805688073.67768 2.898318816789e+15
316	24356701 50786 364064 248033264 6.007841425051 3381.514532863959 1074 0.026622310297875 866.12298848574 67613.29722411 20268206.880411
323	24407487 48889 974274 247478023 14.202537789974 3370.675389947016 1044 7.0191289433436 231670.2006811 24817097.886889 2130744920756.5
324	24456376 49036 974274 247478023 14.202537789974 3370.675389947016 1044 0.021934777947949 723.96937712845 77533.230950413 20797945.854583
325	24505412 54820 677188 247714858 7.111743890836 3376.722505936726 1170 7.264452033444 8687632.5255414 917456179.61679 3.1070470023507e+15
326	24560232 55098 677188 247714858 7.111743890836 3376.722505936726 1170 0.032430589435018 723.96937712845 76979.323281756 21748145.852779
333	24615330 49362 550252 245479264 7.721283868722 3353.147738086135 1053 6.4720541329293 279973.60636654 24226696.130136 1988791674777
334	24664692 49444 550252 245479264 7.721283868722 3353.147738086135 1053 0.020225169165404 874.91751989543 75688.059988738 19411116.9176
335	24714136 55508 490069 247714812 7.111743876176 3371.036655318999 1184 7.6078506107878 10499010.238745 902300956.42911 3.0632930778817e+15
336	24769644 55732 490069 247714812 7.111743876176 3371.036655318999 1184 0.03396361879816 874.91751989543 75697.705796438 21438845.972971
343	24825376 53635 2105203 247876124 30.84626018057 3380.36924891986 1141 11.225590487052 261671.27872457 29236698.081056 2605702842639.6
344	24879011 53774 2105203 247876124 30.84626018057 3380.36924891986 1141 0.035079970272038 817.72274601428 91343.701890024 25435949.198477
345	24932785 58674 677138 247719876 7.111743864546 3379.52622667091 1247 6.6939473231699 9812672.9521713 1069326230.0871 3.7183170611275e+15
346	24991459 58852 677138 247719876 7.111743864546 3379.52622667091 1247 0.029883693407008 817.72274601428 89665.453439238 26011515.349114
353	25050311 52588 792382 248124836 12.157235772997 3384.46645875555 1123 3.7642368785461 268934.02801919 26924667.958379 2380919418470.7
354	25102899 52716 792382 248124836 12.157235772997 3384.46645875555 1123 0.011763240245456 840.41883755996 84118.478177415 23240301.362354
355	25155615 58094 677230 248124832 7.111743886316 3384.46645875555 1242 5.5292292880235 9905467.6124586 993126473.58698 3.4732506407554e+15
356	25213709 58425 677230 248124832 7.111743886316 3384.46645875555 1242 0.024684059321533 825.45563437155 83290.200777026 24295058.224561
363	25272134 48301 1225329 248015305 18.136183031531 3381.433923194468 1028 12.291833368039 246601.25426548 23714732.469461 2044929236405.8
364	25320435 48396 1225329 248015305 18.136183031531 3381.433923194468 1028 0.038411979275122 770.62891957961 74090.787629391 19960405.55398
365	25368831 53510 677174 248015301 7.111743881589 3381.433923194468 1138 4.8983622883233 9415547.6596587 870957202.99569 2.9959970999732e+15
366	25422341 53683 677174 248015301 7.111743881589 3381.433923194468 1138 0.021867688787157 784.62897163823 73058.869080128 20972298.133641
373	25476024 51422 1324739 248121937 18.691443647889 3384.306724934383 1096 5.8508160854022 225881.77974077 27616635.512222 2378619791916.1
374	25527446 51511 1324739 248121937 18.691443647889 3384.306724934383 1096 0.018283800266882 705.88056168991 86282.208601985 23218857.595958
375	25578957 57357 677156 248123731 7.111743876407 3384.391027183 1222 3.257308294646 8622243.8439505 1029374273.8533 3.4970859815574e+15
376	25636314 57591 677156 248123731 7.111743876407 3384.391027183 1222 0.014541554886813 718.52032032921 86310.565242981 24449780.583749
383	25693905 129265 341587 248136888 5.000851252945 3385.000851252945 3381 285600 285824 965619872 2.7578282813133e+14
384	25823170 115741 341587 248136888 5.000851252945 3385.000851252945 3381 25 26 84553 2114553
385	25938911 141907 348794 248155754 5.161406753447 3385.255088685949 3341 156641.92541126 330448.20662508 941214488.0936 2.6598958311069e+14
386	26080818 134971 348794 248155754 5.161406753447 3385.255088685949 3341 13.711653134739 29.468541196611 82648.386760752 2051095.3217018
393	26215789 146670 362146 248129548 5.102496978949 3384.708402099937 3121 227.47934742114 7027596.3822145 3121009646.7191 1.0870775619234e+16
394	26362459 146603 362146 248129548 5.102496978949 3384.708402099937 3121 0.1265197123146 585.63303185121 261796.78013592 76164904.603056
395	26509062 147514 363405 248129543 5.102496978949 3384.708402099937 3138 40.921135308354 171412.58980055 67475291.170846 4410412635732.3
396	26656576 147460 363405 248129543 5.102496978949 3384.708402099937 3138 0.12787854783861 535.66434312671 210871.54648499 43059446.48733
403	26804036 145377 343437 248127257 5.015721781078 3384.574814663265 3365 284494.96551366 11326874.079154 9787520724.4067 5.1140644095796e+16
404	26949413 139389 343437 248127257 5.015721781078 3384.574814663265 3365 25 1003.0058595127 1030596.5993372 486087264.58035
405	27088802 146966 345266 248158518 5.04144033184 3385.281125275629 3363 285600 6618272 3994924487.1928 9.3009268562867e+15
406	27235768 142206 345266 248158518 5.04144033184 3385.281125275629 3363 25 943.19515281972 1028910.6237994 479338839.7224