file 44750312 1471642535                                        
version 2
run _8to13off-3-20160819-23:05:19-12662
attr configname _8to13off
attr datetime 20160819-23:05:19
attr experiment _8to13off
attr inifile omnetpp.ini
attr iterationvars $0=8
attr iterationvars2 "$0=8, $repetition=3"
attr measurement $0=8
attr network University
attr processid 12662
attr repetition 3
attr replication #3
attr resultdir results
attr runnumber 3
attr seedset 3

vector 219  University.whostVideoConf.udpApp[0]  rcvdPk:vector(packetBytes)  ETV
attr interpolationmode  none
attr source  rcvdPk
attr title  "packets received, vector(packetBytes)"
vector 221  University.whostVideoConf.udpApp[0]  rcvdPkLifetime:vector  ETV
attr interpolationmode  none
attr source  messageAge(rcvdPk)
attr title  "received packet lifetime, vector"
attr unit  s
vector 220  University.whostVideoConf.udpApp[0]  sentPk:vector(packetBytes)  ETV
attr interpolationmode  none
attr source  sentPk
attr title  "packets sent, vector(packetBytes)"
vector 76  University.profLaptop.udpApp[0]  sentPk:vector(packetBytes)  ETV
attr interpolationmode  none
attr source  sentPk
attr title  "packets sent, vector(packetBytes)"
vector 75  University.profLaptop.udpApp[0]  rcvdPk:vector(packetBytes)  ETV
attr interpolationmode  none
attr source  rcvdPk
attr title  "packets received, vector(packetBytes)"
vector 77  University.profLaptop.udpApp[0]  rcvdPkLifetime:vector  ETV
attr interpolationmode  none
attr source  messageAge(rcvdPk)
attr title  "received packet lifetime, vector"
attr unit  s
vector 259  University.remoteR.eth[0].outputHook[0]  "thruput (bit/sec)"  ETV
vector 260  University.remoteR.eth[0].outputHook[0]  packet/sec  ETV
vector 415  University.accessPoint.eth[0].inputHook[0]  "thruput (bit/sec)"  ETV
vector 416  University.accessPoint.eth[0].inputHook[0]  packet/sec  ETV
vector 403  University.accessPoint.wlan[0].outputHook[0]  "thruput (bit/sec)"  ETV
vector 404  University.accessPoint.wlan[0].outputHook[0]  packet/sec  ETV
vector 383  University.whostVideoConf.wlan[0].outputHook[0]  "thruput (bit/sec)"  ETV
vector 384  University.whostVideoConf.wlan[0].outputHook[0]  packet/sec  ETV
vector 405  University.accessPoint.wlan[0].inputHook[0]  "thruput (bit/sec)"  ETV
vector 406  University.accessPoint.wlan[0].inputHook[0]  packet/sec  ETV
vector 413  University.accessPoint.eth[0].outputHook[0]  "thruput (bit/sec)"  ETV
vector 414  University.accessPoint.eth[0].outputHook[0]  packet/sec  ETV
vector 261  University.remoteR.eth[0].inputHook[0]  "thruput (bit/sec)"  ETV
vector 262  University.remoteR.eth[0].inputHook[0]  packet/sec  ETV
vector 267  University.remoteR.ppp[0].outputHook[0]  "thruput (bit/sec)"  ETV
vector 268  University.remoteR.ppp[0].outputHook[0]  packet/sec  ETV
vector 291  University.profLaptop.ppp[0].outputHook[0]  "thruput (bit/sec)"  ETV
vector 292  University.profLaptop.ppp[0].outputHook[0]  packet/sec  ETV
vector 273  University.mainR.ppp[0].inputHook[0]  "thruput (bit/sec)"  ETV
vector 274  University.mainR.ppp[0].inputHook[0]  packet/sec  ETV
vector 277  University.mainR.ppp[1].inputHook[0]  "thruput (bit/sec)"  ETV
vector 278  University.mainR.ppp[1].inputHook[0]  packet/sec  ETV
vector 271  University.mainR.ppp[0].outputHook[0]  "thruput (bit/sec)"  ETV
vector 272  University.mainR.ppp[0].outputHook[0]  packet/sec  ETV
vector 269  University.remoteR.ppp[0].inputHook[0]  "thruput (bit/sec)"  ETV
vector 270  University.remoteR.ppp[0].inputHook[0]  packet/sec  ETV
vector 355  University.whttpStudents[5].wlan[0].inputHook[0]  "thruput (bit/sec)"  ETV
vector 356  University.whttpStudents[5].wlan[0].inputHook[0]  packet/sec  ETV
vector 303  University.whttpStudents[0].wlan[0].outputHook[0]  "thruput (bit/sec)"  ETV
vector 304  University.whttpStudents[0].wlan[0].outputHook[0]  packet/sec  ETV
vector 279  University.mainR.ppp[2].outputHook[0]  "thruput (bit/sec)"  ETV
vector 280  University.mainR.ppp[2].outputHook[0]  packet/sec  ETV
vector 385  University.whostVideoConf.wlan[0].inputHook[0]  "thruput (bit/sec)"  ETV
vector 386  University.whostVideoConf.wlan[0].inputHook[0]  packet/sec  ETV
vector 297  University.Server.ppp[0].inputHook[0]  "thruput (bit/sec)"  ETV
vector 298  University.Server.ppp[0].inputHook[0]  packet/sec  ETV
vector 295  University.Server.ppp[0].outputHook[0]  "thruput (bit/sec)"  ETV
vector 296  University.Server.ppp[0].outputHook[0]  packet/sec  ETV
vector 281  University.mainR.ppp[2].inputHook[0]  "thruput (bit/sec)"  ETV
vector 282  University.mainR.ppp[2].inputHook[0]  packet/sec  ETV
vector 275  University.mainR.ppp[1].outputHook[0]  "thruput (bit/sec)"  ETV
vector 276  University.mainR.ppp[1].outputHook[0]  packet/sec  ETV
vector 293  University.profLaptop.ppp[0].inputHook[0]  "thruput (bit/sec)"  ETV
vector 294  University.profLaptop.ppp[0].inputHook[0]  packet/sec  ETV
vector 395  University.whostFTP.wlan[0].inputHook[0]  "thruput (bit/sec)"  ETV
vector 396  University.whostFTP.wlan[0].inputHook[0]  packet/sec  ETV
vector 393  University.whostFTP.wlan[0].outputHook[0]  "thruput (bit/sec)"  ETV
vector 394  University.whostFTP.wlan[0].outputHook[0]  packet/sec  ETV
vector 353  University.whttpStudents[5].wlan[0].outputHook[0]  "thruput (bit/sec)"  ETV
vector 354  University.whttpStudents[5].wlan[0].outputHook[0]  packet/sec  ETV
vector 305  University.whttpStudents[0].wlan[0].inputHook[0]  "thruput (bit/sec)"  ETV
vector 306  University.whttpStudents[0].wlan[0].inputHook[0]  packet/sec  ETV
vector 375  University.whttpStudents[7].wlan[0].inputHook[0]  "thruput (bit/sec)"  ETV
vector 376  University.whttpStudents[7].wlan[0].inputHook[0]  packet/sec  ETV
vector 373  University.whttpStudents[7].wlan[0].outputHook[0]  "thruput (bit/sec)"  ETV
vector 374  University.whttpStudents[7].wlan[0].outputHook[0]  packet/sec  ETV
vector 97  University.Server.tcpApp[1]  rcvdPk:vector(packetBytes)  ETV
attr interpolationmode  none
attr source  rcvdPk
attr title  "packets received, vector(packetBytes)"
vector 99  University.Server.tcpApp[1]  endToEndDelay:vector  ETV
attr interpolationmode  none
attr source  messageAge(rcvdPk)
attr title  "end-to-end delay, vector"
attr unit  s
vector 98  University.Server.tcpApp[1]  sentPk:vector(packetBytes)  ETV
attr interpolationmode  none
attr source  sentPk
attr title  "packets sent, vector(packetBytes)"
vector 235  University.whostFTP.tcpApp[0]  rcvdPk:vector(packetBytes)  ETV
attr interpolationmode  none
attr source  rcvdPk
attr title  "packets received, vector(packetBytes)"
vector 237  University.whostFTP.tcpApp[0]  endToEndDelay:vector  ETV
attr interpolationmode  none
attr source  messageAge(rcvdPk)
attr title  "end-to-end delay, vector"
attr unit  s
vector 238  University.whostFTP.tcpApp[0]  numActiveSessions:vector  ETV
attr interpolationmode  sample-hold
attr source  sum(connect)
attr title  "number of active sessions, vector"
vector 236  University.whostFTP.tcpApp[0]  sentPk:vector(packetBytes)  ETV
attr interpolationmode  none
attr source  sentPk
attr title  "packets sent, vector(packetBytes)"
vector 207  University.whttpStudents[7].tcpApp[0]  rcvdPk:vector(packetBytes)  ETV
attr interpolationmode  none
attr source  rcvdPk
attr title  "packets received, vector(packetBytes)"
vector 209  University.whttpStudents[7].tcpApp[0]  endToEndDelay:vector  ETV
attr interpolationmode  none
attr source  messageAge(rcvdPk)
attr title  "end-to-end delay, vector"
attr unit  s
vector 210  University.whttpStudents[7].tcpApp[0]  numActiveSessions:vector  ETV
attr interpolationmode  sample-hold
attr source  sum(connect)
attr title  "number of active sessions, vector"
vector 198  University.whttpStudents[6].tcpApp[0]  numActiveSessions:vector  ETV
attr interpolationmode  sample-hold
attr source  sum(connect)
attr title  "number of active sessions, vector"
vector 196  University.whttpStudents[6].tcpApp[0]  sentPk:vector(packetBytes)  ETV
attr interpolationmode  none
attr source  sentPk
attr title  "packets sent, vector(packetBytes)"
vector 94  University.Server.tcpApp[0]  rcvdPk:vector(packetBytes)  ETV
attr interpolationmode  none
attr source  rcvdPk
attr title  "packets received, vector(packetBytes)"
vector 96  University.Server.tcpApp[0]  endToEndDelay:vector  ETV
attr interpolationmode  none
attr source  messageAge(rcvdPk)
attr title  "end-to-end delay, vector"
attr unit  s
vector 95  University.Server.tcpApp[0]  sentPk:vector(packetBytes)  ETV
attr interpolationmode  none
attr source  sentPk
attr title  "packets sent, vector(packetBytes)"
vector 363  University.whttpStudents[6].wlan[0].outputHook[0]  "thruput (bit/sec)"  ETV
vector 364  University.whttpStudents[6].wlan[0].outputHook[0]  packet/sec  ETV
vector 365  University.whttpStudents[6].wlan[0].inputHook[0]  "thruput (bit/sec)"  ETV
vector 366  University.whttpStudents[6].wlan[0].inputHook[0]  packet/sec  ETV
vector 195  University.whttpStudents[6].tcpApp[0]  rcvdPk:vector(packetBytes)  ETV
attr interpolationmode  none
attr source  rcvdPk
attr title  "packets received, vector(packetBytes)"
vector 197  University.whttpStudents[6].tcpApp[0]  endToEndDelay:vector  ETV
attr interpolationmode  none
attr source  messageAge(rcvdPk)
attr title  "end-to-end delay, vector"
attr unit  s
vector 123  University.whttpStudents[0].tcpApp[0]  rcvdPk:vector(packetBytes)  ETV
attr interpolationmode  none
attr source  rcvdPk
attr title  "packets received, vector(packetBytes)"
vector 125  University.whttpStudents[0].tcpApp[0]  endToEndDelay:vector  ETV
attr interpolationmode  none
attr source  messageAge(rcvdPk)
attr title  "end-to-end delay, vector"
attr unit  s
vector 126  University.whttpStudents[0].tcpApp[0]  numActiveSessions:vector  ETV
attr interpolationmode  sample-hold
attr source  sum(connect)
attr title  "number of active sessions, vector"
vector 162  University.whttpStudents[3].tcpApp[0]  numActiveSessions:vector  ETV
attr interpolationmode  sample-hold
attr source  sum(connect)
attr title  "number of active sessions, vector"
vector 335  University.whttpStudents[3].wlan[0].inputHook[0]  "thruput (bit/sec)"  ETV
vector 336  University.whttpStudents[3].wlan[0].inputHook[0]  packet/sec  ETV
vector 160  University.whttpStudents[3].tcpApp[0]  sentPk:vector(packetBytes)  ETV
attr interpolationmode  none
attr source  sentPk
attr title  "packets sent, vector(packetBytes)"
vector 159  University.whttpStudents[3].tcpApp[0]  rcvdPk:vector(packetBytes)  ETV
attr interpolationmode  none
attr source  rcvdPk
attr title  "packets received, vector(packetBytes)"
vector 161  University.whttpStudents[3].tcpApp[0]  endToEndDelay:vector  ETV
attr interpolationmode  none
attr source  messageAge(rcvdPk)
attr title  "end-to-end delay, vector"
attr unit  s
vector 333  University.whttpStudents[3].wlan[0].outputHook[0]  "thruput (bit/sec)"  ETV
vector 334  University.whttpStudents[3].wlan[0].outputHook[0]  packet/sec  ETV
vector 183  University.whttpStudents[5].tcpApp[0]  rcvdPk:vector(packetBytes)  ETV
attr interpolationmode  none
attr source  rcvdPk
attr title  "packets received, vector(packetBytes)"
vector 185  University.whttpStudents[5].tcpApp[0]  endToEndDelay:vector  ETV
attr interpolationmode  none
attr source  messageAge(rcvdPk)
attr title  "end-to-end delay, vector"
attr unit  s
vector 186  University.whttpStudents[5].tcpApp[0]  numActiveSessions:vector  ETV
attr interpolationmode  sample-hold
attr source  sum(connect)
attr title  "number of active sessions, vector"
vector 208  University.whttpStudents[7].tcpApp[0]  sentPk:vector(packetBytes)  ETV
attr interpolationmode  none
attr source  sentPk
attr title  "packets sent, vector(packetBytes)"
vector 174  University.whttpStudents[4].tcpApp[0]  numActiveSessions:vector  ETV
attr interpolationmode  sample-hold
attr source  sum(connect)
attr title  "number of active sessions, vector"
vector 345  University.whttpStudents[4].wlan[0].inputHook[0]  "thruput (bit/sec)"  ETV
vector 346  University.whttpStudents[4].wlan[0].inputHook[0]  packet/sec  ETV
vector 172  University.whttpStudents[4].tcpApp[0]  sentPk:vector(packetBytes)  ETV
attr interpolationmode  none
attr source  sentPk
attr title  "packets sent, vector(packetBytes)"
vector 343  University.whttpStudents[4].wlan[0].outputHook[0]  "thruput (bit/sec)"  ETV
vector 344  University.whttpStudents[4].wlan[0].outputHook[0]  packet/sec  ETV
vector 171  University.whttpStudents[4].tcpApp[0]  rcvdPk:vector(packetBytes)  ETV
attr interpolationmode  none
attr source  rcvdPk
attr title  "packets received, vector(packetBytes)"
vector 173  University.whttpStudents[4].tcpApp[0]  endToEndDelay:vector  ETV
attr interpolationmode  none
attr source  messageAge(rcvdPk)
attr title  "end-to-end delay, vector"
attr unit  s
vector 124  University.whttpStudents[0].tcpApp[0]  sentPk:vector(packetBytes)  ETV
attr interpolationmode  none
attr source  sentPk
attr title  "packets sent, vector(packetBytes)"
vector 138  University.whttpStudents[1].tcpApp[0]  numActiveSessions:vector  ETV
attr interpolationmode  sample-hold
attr source  sum(connect)
attr title  "number of active sessions, vector"
vector 325  University.whttpStudents[2].wlan[0].inputHook[0]  "thruput (bit/sec)"  ETV
vector 326  University.whttpStudents[2].wlan[0].inputHook[0]  packet/sec  ETV
vector 315  University.whttpStudents[1].wlan[0].inputHook[0]  "thruput (bit/sec)"  ETV
vector 316  University.whttpStudents[1].wlan[0].inputHook[0]  packet/sec  ETV
vector 136  University.whttpStudents[1].tcpApp[0]  sentPk:vector(packetBytes)  ETV
attr interpolationmode  none
attr source  sentPk
attr title  "packets sent, vector(packetBytes)"
vector 150  University.whttpStudents[2].tcpApp[0]  numActiveSessions:vector  ETV
attr interpolationmode  sample-hold
attr source  sum(connect)
attr title  "number of active sessions, vector"
vector 148  University.whttpStudents[2].tcpApp[0]  sentPk:vector(packetBytes)  ETV
attr interpolationmode  none
attr source  sentPk
attr title  "packets sent, vector(packetBytes)"
vector 313  University.whttpStudents[1].wlan[0].outputHook[0]  "thruput (bit/sec)"  ETV
vector 314  University.whttpStudents[1].wlan[0].outputHook[0]  packet/sec  ETV
vector 323  University.whttpStudents[2].wlan[0].outputHook[0]  "thruput (bit/sec)"  ETV
vector 324  University.whttpStudents[2].wlan[0].outputHook[0]  packet/sec  ETV
vector 147  University.whttpStudents[2].tcpApp[0]  rcvdPk:vector(packetBytes)  ETV
attr interpolationmode  none
attr source  rcvdPk
attr title  "packets received, vector(packetBytes)"
vector 149  University.whttpStudents[2].tcpApp[0]  endToEndDelay:vector  ETV
attr interpolationmode  none
attr source  messageAge(rcvdPk)
attr title  "end-to-end delay, vector"
attr unit  s
vector 135  University.whttpStudents[1].tcpApp[0]  rcvdPk:vector(packetBytes)  ETV
attr interpolationmode  none
attr source  rcvdPk
attr title  "packets received, vector(packetBytes)"
vector 137  University.whttpStudents[1].tcpApp[0]  endToEndDelay:vector  ETV
attr interpolationmode  none
attr source  messageAge(rcvdPk)
attr title  "end-to-end delay, vector"
attr unit  s
vector 184  University.whttpStudents[5].tcpApp[0]  sentPk:vector(packetBytes)  ETV
attr interpolationmode  none
attr source  sentPk
attr title  "packets sent, vector(packetBytes)"
75	15128 3011132 383255 299549507 5.036051048782 3425.276051048782 85374 1400 1400 119523600 167333040000
76	3026260 3019529 383216 299549226 5.028325912887 3425.268325912887 85507 1400 1400 119709800 167593720000
77	6045789 3861294 383255 299549507 5.036051048782 3425.276051048782 85374 0.016345611938 0.211906237757 1460.5154130057 25.715786241993
94	9907083 42500 1049585 299132855 9.146416194576 3420.553686839868 1319 1 1 1319 1319
95	9949583 49390 1049585 299132855 9.146416194576 3420.553686839868 1319 1674 7150375 1152974184 1.9771862620075e+15
96	9998973 58587 1049585 299132855 9.146416194576 3420.553686839868 1319 0.034818135765 0.058944998478 46.430709029273 1.6361393802869
97	10057560 17617 844974 299453914 7.93467480667 3424.426283315524 461 1048576 1048576 483393536 5.0687486040474e+14
98	10075177 14851 844974 299453914 7.93467480667 3424.426283315524 461 1 1 461 461
99	10090028 20840 844974 299453914 7.93467480667 3424.426283315524 461 1.773021597139 22.626299063623 3344.8669871681 27438.041622698
123	10110868 6383 1441334 298044092 11.075692460232 3409.285695402843 166 19195 5090998 124822832 2.0336160117679e+14
124	10117251 5503 2350335 297567802 27.752995229255 3401.752932416811 165 1 1 165 165
125	10122754 7699 1441334 298044092 11.075692460232 3409.285695402843 166 0.199181685276 19.417710175763 687.02056475459 6682.9513037569
126	10130453 11192 1441334 298044092 11.075692460232 3409.285695402843 331 -1 0 -166 166
135	10141645 6770 3519828 296665716 40.728204194228 3391.41386263512 176 1674 7150375 165089140 3.0108427461501e+14
136	10148415 5879 2704615 299131388 33.565065984777 3420.518814704103 177 1 1 177 177
137	10154294 8130 3519828 296665716 40.728204194228 3391.41386263512 176 0.09680457918 41.947424393202 874.76585263839 9024.90091777
138	10162424 11717 2702904 299129599 33.516462693891 3420.472371796547 353 0 1 177 177
147	10174141 6590 3297612 298736704 37.534323524855 3416.483746284791 172 3907 4274248 146923148 2.5960774708952e+14
148	10180731 5713 2708496 298033085 33.680888184519 3409.111838653271 172 1 1 172 172
149	10186444 7936 3297612 298736704 37.534323524855 3416.483746284791 172 0.097810718987 24.316922294109 739.57891773594 6775.4137853456
150	10194380 11422 2706635 298736704 33.634445232785 3416.483746284791 344 0 1 172 172
159	10205802 6341 1609184 298187321 13.596606833779 3410.620579491651 165 2697 3481411 137037079 2.1168267719974e+14
160	10212143 5529 1522677 298414986 12.645522076092 3414.40181218347 166 1 1 166 166
161	10217672 7636 1609184 298187321 13.596606833779 3410.620579491651 165 0.096529886935 23.974222233995 742.88818246882 7006.0462152046
162	10225308 11011 1519375 298410785 12.594848899368 3414.355369206204 331 0 1 166 166
171	10236319 6574 2344090 298026038 27.261092081212 3408.663327435427 171 7703 4366587 171356510 3.4052329933943e+14
172	10242893 5668 1949293 297890831 22.590151018683 3408.005084014422 171 1 1 171 171
173	10248561 7898 2344090 298026038 27.261092081212 3408.663327435427 171 0.147237251168 19.54836955446 822.90075952024 7908.570985968
174	10256459 11344 1948349 298026038 22.543708051837 3408.663327435427 342 0 1 171 171
183	10267803 6204 1737375 295978248 15.296618163518 3385.829449795472 161 8024 4127882 139511287 2.1807027243657e+14
184	10274007 5312 4381518 295953995 60.933873637439 3385.516296879061 160 1 1 160 160
185	10279319 7450 1737375 295978248 15.296618163518 3385.829449795472 161 0.147162064839 17.413177168138 781.153718994 7225.6035761429
186	10286769 10832 1737375 295978248 15.296618163518 3385.829449795472 321 -1 0 -161 161
195	10297601 6010 1395899 299119688 10.732449359171 3420.218052101337 156 5350 5384174 139829983 2.3767429569747e+14
196	10303611 5181 1041960 298182558 9.110550948106 3410.477011564208 156 1 1 156 156
197	10308792 7228 1395899 299119688 10.732449359171 3420.218052101337 156 0.144467365243 21.3783668136 806.9776639988 8167.6133362982
198	10316020 10372 1029526 299119688 9.054322743117 3420.218052101337 312 0 1 156 156
207	10326392 5828 954322 297875682 8.686169135534 3407.446919664741 152 4259 5546920 129537765 2.1155659710618e+14
208	10332220 5045 1933300 298900617 21.885470882554 3418.094616280506 152 1 1 152 152
209	10337265 7019 954322 297875682 8.686169135534 3407.446919664741 152 0.097759167789 21.295156104548 710.98455292496 6965.7416235371
210	10344284 10228 954322 298898766 8.686169135534 3418.04817333946 304 -1 0 -152 152
219	10354512 3051231 382159 299549586 5.004672964825 3425.284672964825 84107 1400 1400 117749800 164849720000
220	13405743 3105072 383067 299550070 5.019705436844 3425.299705436844 85508 1400 1400 119711200 167595680000
221	16510815 3889308 382159 299549586 5.004672964825 3425.284672964825 84107 0.016319151144 1.051874021835 2231.7341290177 134.94997666402
235	20400123 15332 847381 299454162 7.947406307831 3424.438978816685 461 1 1 461 461
236	20415455 18098 854735 299457464 8.042132279857 3424.533767788711 461 1048576 1048576 483393536 5.0687486040474e+14
237	20433553 21311 847381 299454162 7.947406307831 3424.438978816685 461 1.787132869091 22.661256520353 3367.392054501 27801.502332729
238	20454864 31130 847381 299455949 7.947406307831 3424.486563777595 922 -1 0 -461 461
259	20485994 149158 512482 299451831 5.004282579553 3423.361301347547 3405 282575.99857532 11702828.048214 10801209457.897 6.2345685516627e+16
260	20635152 144016 512482 299451831 5.004282579553 3423.361301347547 3405 25 989.4741960373 1244454.8505649 660917196.89809
261	20779168 153295 513074 299547528 5.020094382116 3424.180094382116 3403 258494.77077026 7681852.5690864 5318878093.4441 1.4212766154375e+16
262	20932463 150363 513074 299547528 5.020094382116 3424.180094382116 3403 25 937.94777841148 1241539.2305069 654404538.16872
267	21082826 153308 513076 299547530 5.020094382116 3424.180094382116 3403 258494.77077026 7681852.5690864 5318811485.672 1.4212515224258e+16
268	21236134 150356 513076 299547530 5.020094382116 3424.180094382116 3403 25 937.94777841148 1241276.2451313 654170606.25623
269	21386490 149186 516856 299451829 5.044282579553 3423.361301347547 3405 282575.99857532 11702828.048214 10801334370.697 6.2326601787379e+16
270	21535676 144070 516856 299451829 5.044282579553 3423.361301347547 3405 25 988.47472715241 1244203.3633571 660549976.77961
271	21679746 133447 515431 299521877 5.033325912887 3424.033325912887 3420 285600 13808344 11671807104 7.4856022405176e+16
272	21813193 120251 515431 299521877 5.033325912887 3424.033325912887 3420 25 1180 1318338 758922776
273	21933444 153376 515112 299543363 5.031051048782 3424.136116562401 3403 258494.77077026 7683334.8074164 5318706025.3853 1.4222856192143e+16
274	22086820 150467 515112 299543363 5.031051048782 3424.136116562401 3403 25 937.94777841148 1241270.4150693 653870697.68938
275	22237287 147493 531881 299521792 5.15133218972 3424.031051048782 3375 171360 321319.68652467 962502883.20162 2.7464567183093e+14
276	22384780 142263 531881 299521792 5.15133218972 3424.031051048782 3375 15 28.126723260212 84252.703361486 2104439.139557
277	22527043 131033 515429 299521875 5.033325912887 3424.033325912887 3420 285600 285600 976752000 2.789603712e+14
278	22658076 117353 515429 299521875 5.033325912887 3424.033325912887 3420 25 25 85500 2137500
279	22775429 158475 519351 299533819 5.069877594619 3424.087416957539 3365 2069.054741691 8786629.8586582 4314867062.4637 1.1264760303673e+16
280	22933904 158377 519351 299533819 5.069877594619 3424.087416957539 3365 4.6559227753972 911.25074113531 1150593.1437015 593195683.23811
281	23092281 158032 521896 299450384 5.096210899483 3423.302129426659 3355 2254.6237566486 13275985.689242 10556857730.987 6.736575378092e+16
282	23250313 157940 521896 299450384 5.096210899483 3423.302129426659 3355 3.4230982392483 1138.9791208724 1216288.2933726 683413041.80855
291	23408253 131033 514623 299520817 5.028325912887 3424.028325912887 3420 285600 285600 976752000 2.789603712e+14
292	23539286 117353 514623 299520817 5.028325912887 3424.028325912887 3420 25 25 85500 2137500
293	23656639 147493 531935 299522739 5.15633218972 3424.036051048782 3375 171360 321319.68652467 962502883.20162 2.7464567183093e+14
294	23804132 142263 531935 299522739 5.15633218972 3424.036051048782 3375 15 28.126723260212 84252.703361486 2104439.139557
295	23946395 158055 521883 299550196 5.093889826345 3424.304886209861 3356 2254.6247733147 27906665.636923 11091181497.678 7.7647089695874e+16
296	24104450 157942 521883 299550196 5.093889826345 3424.304886209861 3356 3.4230982392483 2346.6429554534 1261194.184869 765339956.0241
297	24262392 158458 521878 299539168 5.093889826345 3424.111429189265 3365 2068.9245365148 8785605.0447877 4314740275.1696 1.1263889474936e+16
298	24420850 158366 521878 299539168 5.093889826345 3424.111429189265 3365 4.6559227753972 911.14452335319 1150556.3509273 593244773.91039
303	24579216 32270 518394 298029039 5.064804350806 3407.838364595291 685 4.5796449539674 269071.0518879 22684038.147408 2559959253282.2
304	24611486 32354 518394 298029039 5.064804350806 3407.838364595291 685 0.014311390481148 840.84703714968 70871.286360104 24989037.753807
305	24643840 39910 636671 298029553 5.92840863012 3407.886531893403 846 6.4600506914448 10136856.65625 863729780.45665 3.6748510030828e+15
306	24683750 40139 636671 298029553 5.92840863012 3407.886531893403 846 0.028839512015379 844.73805468752 72452.278416391 25711961.314596
313	24723889 41283 2857325 299457758 33.516462693891 3423.506952403302 877 11.005696313608 279178.44550722 31422555.100115 3687928819786.9
314	24765172 41374 2857325 299457758 33.516462693891 3423.506952403302 877 0.034392800980027 872.43264221007 98172.639595972 35999131.269038
315	24806546 47426 2703111 299459423 9.06037682666 3423.565600263493 1006 6.6451056979667 10465174.535083 1200047253.3864 5.3599618284197e+15
316	24853972 47611 2703111 299459423 9.06037682666 3423.565600263493 1006 0.029665650437352 872.09787792355 100593.89855633 37495917.962288
323	24901583 34896 2871218 298619490 33.634445232785 3414.665440481142 742 6.6547830352668 265765.75690657 26812929.149786 3174706707907.8
324	24936479 34996 2871218 298619490 33.634445232785 3414.665440481142 742 0.020796196985209 830.51799033303 83769.364710349 30989086.295627
325	24971475 42410 2703071 298619486 9.060376848749 3414.665440481142 900 4.9968837654379 9851731.8734822 1018939681.0321 4.5296435810338e+15
326	25013885 42645 2703071 298619486 9.060376848749 3414.665440481142 900 0.02230751680999 820.97765612351 85443.560401417 31686911.260176
333	25056530 34521 1609187 299278413 12.594848899368 3420.427585992868 734 14.826663985161 268327.0385414 25621535.160926 2859695441649.9
334	25091051 34545 1609187 299278413 12.594848899368 3420.427585992868 734 0.04633332495363 838.52199544187 80047.374192841 27912240.592829
335	25125596 42163 1522673 299289885 9.060376861515 3420.523920640732 896 7.8349365699642 10057312.672568 975851876.77238 4.1513535181318e+15
336	25167759 42394 1522673 299289885 9.060376861515 3420.523920640732 896 0.034977395401626 838.52199544187 81810.191650132 29035076.086085
343	25210153 38372 2076187 297887313 22.543708051837 3388.857906290533 814 8.6930955443622 275036.12108456 31390652.504753 3819387580509.6
344	25248525 38447 2076187 297887313 22.543708051837 3388.857906290533 814 0.027165923576132 859.48787838923 98072.333148183 37283586.542088
345	25286972 45474 1949289 297903870 9.060376856305 3407.079243980998 965 4.5897993928914 10549667.6118 1191302279.2325 5.4630681215492e+15
346	25332446 45711 1949289 297903870 9.060376856305 3407.079243980998 965 0.020490175861122 879.91489260074 99839.448619697 38198946.856219
353	25378157 35550 588285 295913894 5.634150683817 3352.874964847128 755 14.074296947787 271642.12992164 25142909.297405 2834005036192
354	25413707 35621 588285 295913894 5.634150683817 3352.874964847128 755 0.043982177961833 848.88165600513 78551.817442444 27661765.640538
355	25449328 42734 517319 297844174 5.059456437703 3385.759057803455 907 6.0707438193599 10186579.872062 957409368.01141 4.0399105521482e+15
356	25492062 42943 517319 297844174 5.059456437703 3385.759057803455 907 0.027101534907857 848.88165600513 80277.396558538 28284256.351782
363	25535005 36059 1251145 299073471 9.054322743117 3418.664668824566 767 6.6430605569868 250143.11512797 26030273.739686 2921718230571.5
364	25571064 36204 1251145 299073471 9.054322743117 3418.664668824566 767 0.020759564240584 781.6972347749 81325.71280153 28519393.314114
365	25607268 43237 1252572 299073467 9.061066876356 3418.664668824566 917 6.0978465583088 9411326.5066486 984145014.44556 4.1981919256485e+15
366	25650505 43470 1252572 299073467 9.061066876356 3418.664668824566 917 0.027222529278164 784.34781684372 82528.087061485 29392050.069462
373	25693975 32977 642787 299446099 5.938668661285 3423.129041151883 702 13.621159945468 272834.03494697 23894363.185672 2728595182610.8
374	25726952 33121 642787 299446099 5.938668661285 3423.129041151883 702 0.042566124829589 852.60635920929 74651.90070962 26634187.670478
375	25760073 40448 642783 299451972 5.938668661285 3423.323008035714 858 7.206579737398 10230563.329584 891333017.37155 3.7918360476931e+15
376	25800521 40659 642783 299451972 5.938668661285 3423.323008035714 858 0.032172230970527 852.60635920929 74732.108202429 26538319.174537
383	25841180 131033 512845 299519031 5.019705436844 3424.019705436844 3420 285600 285824 976758272 2.7896395517133e+14
384	25972213 117353 512845 299519031 5.019705436844 3424.019705436844 3420 25 26 85528 2138928
385	26089566 145589 520984 299548085 5.084672964825 3424.204672964825 3372 85475.308734965 579864.5616632 947857738.82284 2.6759826579859e+14
386	26235155 139599 520984 299548085 5.084672964825 3424.204672964825 3372 8.1477480365053 51.733826326051 83224.353373563 2063085.8821369
393	26374754 144793 532732 299451177 5.207397849437 3423.318558760225 3071 228.66845912655 7698291.2990607 4793854730.5318 1.7520245994191e+16
394	26519547 144467 532732 299451177 5.207397849437 3423.318558760225 3071 0.21719169763029 643.21375730327 402134.4702762 123364137.75897
395	26664014 146004 532727 299451173 5.207397849437 3423.318558760225 3097 64.960838117533 176203.09688806 102787141.06616 7220170214149.4
396	26810018 145757 532727 299451173 5.207397849437 3423.318558760225 3097 0.22718082268676 550.63467777519 321183.22798205 70470465.801496
403	26955775 149193 512489 299451838 5.004398949553 3423.361423477547 3405 286292.3666304 11843781.661286 10997173520.326 6.4216202575669e+16
404	27104968 144114 512489 299451838 5.004398949553 3423.361423477547 3405 25 989.47989241444 1244455.9137112 661014275.40468
405	27249082 153292 513034 299547488 5.019979452116 3424.179979452116 3403 240267.62490103 7548641.8105943 5475287636.1574 1.4625255994402e+16