file 44823786 1471644601                                        
version 2
run _8to13off-9-20160819-23:53:23-13631
attr configname _8to13off
attr datetime 20160819-23:53:23
attr experiment _8to13off
attr inifile omnetpp.ini
attr iterationvars $0=8
attr iterationvars2 "$0=8, $repetition=9"
attr measurement $0=8
attr network University
attr processid 13631
attr repetition 9
attr replication #9
attr resultdir results
attr runnumber 9
attr seedset 9

vector 75  University.profLaptop.udpApp[0]  rcvdPk:vector(packetBytes)  ETV
attr interpolationmode  none
attr source  rcvdPk
attr title  "packets received, vector(packetBytes)"
vector 77  University.profLaptop.udpApp[0]  rcvdPkLifetime:vector  ETV
attr interpolationmode  none
attr source  messageAge(rcvdPk)
attr title  "received packet lifetime, vector"
attr unit  s
vector 235  University.whostFTP.tcpApp[0]  rcvdPk:vector(packetBytes)  ETV
attr interpolationmode  none
attr source  rcvdPk
attr title  "packets received, vector(packetBytes)"
vector 237  University.whostFTP.tcpApp[0]  endToEndDelay:vector  ETV
attr interpolationmode  none
attr source  messageAge(rcvdPk)
attr title  "end-to-end delay, vector"
attr unit  s
vector 238  University.whostFTP.tcpApp[0]  numActiveSessions:vector  ETV
attr interpolationmode  sample-hold
attr source  sum(connect)
attr title  "number of active sessions, vector"
vector 76  University.profLaptop.udpApp[0]  sentPk:vector(packetBytes)  ETV
attr interpolationmode  none
attr source  sentPk
attr title  "packets sent, vector(packetBytes)"
vector 220  University.whostVideoConf.udpApp[0]  sentPk:vector(packetBytes)  ETV
attr interpolationmode  none
attr source  sentPk
attr title  "packets sent, vector(packetBytes)"
vector 219  University.whostVideoConf.udpApp[0]  rcvdPk:vector(packetBytes)  ETV
attr interpolationmode  none
attr source  rcvdPk
attr title  "packets received, vector(packetBytes)"
vector 221  University.whostVideoConf.udpApp[0]  rcvdPkLifetime:vector  ETV
attr interpolationmode  none
attr source  messageAge(rcvdPk)
attr title  "received packet lifetime, vector"
attr unit  s
vector 236  University.whostFTP.tcpApp[0]  sentPk:vector(packetBytes)  ETV
attr interpolationmode  none
attr source  sentPk
attr title  "packets sent, vector(packetBytes)"
vector 159  University.whttpStudents[3].tcpApp[0]  rcvdPk:vector(packetBytes)  ETV
attr interpolationmode  none
attr source  rcvdPk
attr title  "packets received, vector(packetBytes)"
vector 161  University.whttpStudents[3].tcpApp[0]  endToEndDelay:vector  ETV
attr interpolationmode  none
attr source  messageAge(rcvdPk)
attr title  "end-to-end delay, vector"
attr unit  s
vector 162  University.whttpStudents[3].tcpApp[0]  numActiveSessions:vector  ETV
attr interpolationmode  sample-hold
attr source  sum(connect)
attr title  "number of active sessions, vector"
vector 184  University.whttpStudents[5].tcpApp[0]  sentPk:vector(packetBytes)  ETV
attr interpolationmode  none
attr source  sentPk
attr title  "packets sent, vector(packetBytes)"
vector 94  University.Server.tcpApp[0]  rcvdPk:vector(packetBytes)  ETV
attr interpolationmode  none
attr source  rcvdPk
attr title  "packets received, vector(packetBytes)"
vector 96  University.Server.tcpApp[0]  endToEndDelay:vector  ETV
attr interpolationmode  none
attr source  messageAge(rcvdPk)
attr title  "end-to-end delay, vector"
attr unit  s
vector 95  University.Server.tcpApp[0]  sentPk:vector(packetBytes)  ETV
attr interpolationmode  none
attr source  sentPk
attr title  "packets sent, vector(packetBytes)"
vector 405  University.accessPoint.wlan[0].inputHook[0]  "thruput (bit/sec)"  ETV
vector 406  University.accessPoint.wlan[0].inputHook[0]  packet/sec  ETV
vector 413  University.accessPoint.eth[0].outputHook[0]  "thruput (bit/sec)"  ETV
vector 414  University.accessPoint.eth[0].outputHook[0]  packet/sec  ETV
vector 261  University.remoteR.eth[0].inputHook[0]  "thruput (bit/sec)"  ETV
vector 262  University.remoteR.eth[0].inputHook[0]  packet/sec  ETV
vector 267  University.remoteR.ppp[0].outputHook[0]  "thruput (bit/sec)"  ETV
vector 268  University.remoteR.ppp[0].outputHook[0]  packet/sec  ETV
vector 273  University.mainR.ppp[0].inputHook[0]  "thruput (bit/sec)"  ETV
vector 274  University.mainR.ppp[0].inputHook[0]  packet/sec  ETV
vector 279  University.mainR.ppp[2].outputHook[0]  "thruput (bit/sec)"  ETV
vector 280  University.mainR.ppp[2].outputHook[0]  packet/sec  ETV
vector 291  University.profLaptop.ppp[0].outputHook[0]  "thruput (bit/sec)"  ETV
vector 292  University.profLaptop.ppp[0].outputHook[0]  packet/sec  ETV
vector 297  University.Server.ppp[0].inputHook[0]  "thruput (bit/sec)"  ETV
vector 298  University.Server.ppp[0].inputHook[0]  packet/sec  ETV
vector 277  University.mainR.ppp[1].inputHook[0]  "thruput (bit/sec)"  ETV
vector 278  University.mainR.ppp[1].inputHook[0]  packet/sec  ETV
vector 271  University.mainR.ppp[0].outputHook[0]  "thruput (bit/sec)"  ETV
vector 272  University.mainR.ppp[0].outputHook[0]  packet/sec  ETV
vector 383  University.whostVideoConf.wlan[0].outputHook[0]  "thruput (bit/sec)"  ETV
vector 384  University.whostVideoConf.wlan[0].outputHook[0]  packet/sec  ETV
vector 259  University.remoteR.eth[0].outputHook[0]  "thruput (bit/sec)"  ETV
vector 260  University.remoteR.eth[0].outputHook[0]  packet/sec  ETV
vector 415  University.accessPoint.eth[0].inputHook[0]  "thruput (bit/sec)"  ETV
vector 416  University.accessPoint.eth[0].inputHook[0]  packet/sec  ETV
vector 403  University.accessPoint.wlan[0].outputHook[0]  "thruput (bit/sec)"  ETV
vector 404  University.accessPoint.wlan[0].outputHook[0]  packet/sec  ETV
vector 385  University.whostVideoConf.wlan[0].inputHook[0]  "thruput (bit/sec)"  ETV
vector 386  University.whostVideoConf.wlan[0].inputHook[0]  packet/sec  ETV
vector 269  University.remoteR.ppp[0].inputHook[0]  "thruput (bit/sec)"  ETV
vector 270  University.remoteR.ppp[0].inputHook[0]  packet/sec  ETV
vector 295  University.Server.ppp[0].outputHook[0]  "thruput (bit/sec)"  ETV
vector 296  University.Server.ppp[0].outputHook[0]  packet/sec  ETV
vector 281  University.mainR.ppp[2].inputHook[0]  "thruput (bit/sec)"  ETV
vector 282  University.mainR.ppp[2].inputHook[0]  packet/sec  ETV
vector 275  University.mainR.ppp[1].outputHook[0]  "thruput (bit/sec)"  ETV
vector 276  University.mainR.ppp[1].outputHook[0]  packet/sec  ETV
vector 395  University.whostFTP.wlan[0].inputHook[0]  "thruput (bit/sec)"  ETV
vector 396  University.whostFTP.wlan[0].inputHook[0]  packet/sec  ETV
vector 393  University.whostFTP.wlan[0].outputHook[0]  "thruput (bit/sec)"  ETV
vector 394  University.whostFTP.wlan[0].outputHook[0]  packet/sec  ETV
vector 293  University.profLaptop.ppp[0].inputHook[0]  "thruput (bit/sec)"  ETV
vector 294  University.profLaptop.ppp[0].inputHook[0]  packet/sec  ETV
vector 183  University.whttpStudents[5].tcpApp[0]  rcvdPk:vector(packetBytes)  ETV
attr interpolationmode  none
attr source  rcvdPk
attr title  "packets received, vector(packetBytes)"
vector 185  University.whttpStudents[5].tcpApp[0]  endToEndDelay:vector  ETV
attr interpolationmode  none
attr source  messageAge(rcvdPk)
attr title  "end-to-end delay, vector"
attr unit  s
vector 186  University.whttpStudents[5].tcpApp[0]  numActiveSessions:vector  ETV
attr interpolationmode  sample-hold
attr source  sum(connect)
attr title  "number of active sessions, vector"
vector 315  University.whttpStudents[1].wlan[0].inputHook[0]  "thruput (bit/sec)"  ETV
vector 316  University.whttpStudents[1].wlan[0].inputHook[0]  packet/sec  ETV
vector 313  University.whttpStudents[1].wlan[0].outputHook[0]  "thruput (bit/sec)"  ETV
vector 314  University.whttpStudents[1].wlan[0].outputHook[0]  packet/sec  ETV
vector 333  University.whttpStudents[3].wlan[0].outputHook[0]  "thruput (bit/sec)"  ETV
vector 334  University.whttpStudents[3].wlan[0].outputHook[0]  packet/sec  ETV
vector 335  University.whttpStudents[3].wlan[0].inputHook[0]  "thruput (bit/sec)"  ETV
vector 336  University.whttpStudents[3].wlan[0].inputHook[0]  packet/sec  ETV
vector 160  University.whttpStudents[3].tcpApp[0]  sentPk:vector(packetBytes)  ETV
attr interpolationmode  none
attr source  sentPk
attr title  "packets sent, vector(packetBytes)"
vector 353  University.whttpStudents[5].wlan[0].outputHook[0]  "thruput (bit/sec)"  ETV
vector 354  University.whttpStudents[5].wlan[0].outputHook[0]  packet/sec  ETV
vector 355  University.whttpStudents[5].wlan[0].inputHook[0]  "thruput (bit/sec)"  ETV
vector 356  University.whttpStudents[5].wlan[0].inputHook[0]  packet/sec  ETV
vector 198  University.whttpStudents[6].tcpApp[0]  numActiveSessions:vector  ETV
attr interpolationmode  sample-hold
attr source  sum(connect)
attr title  "number of active sessions, vector"
vector 196  University.whttpStudents[6].tcpApp[0]  sentPk:vector(packetBytes)  ETV
attr interpolationmode  none
attr source  sentPk
attr title  "packets sent, vector(packetBytes)"
vector 174  University.whttpStudents[4].tcpApp[0]  numActiveSessions:vector  ETV
attr interpolationmode  sample-hold
attr source  sum(connect)
attr title  "number of active sessions, vector"
vector 195  University.whttpStudents[6].tcpApp[0]  rcvdPk:vector(packetBytes)  ETV
attr interpolationmode  none
attr source  rcvdPk
attr title  "packets received, vector(packetBytes)"
vector 197  University.whttpStudents[6].tcpApp[0]  endToEndDelay:vector  ETV
attr interpolationmode  none
attr source  messageAge(rcvdPk)
attr title  "end-to-end delay, vector"
attr unit  s
vector 172  University.whttpStudents[4].tcpApp[0]  sentPk:vector(packetBytes)  ETV
attr interpolationmode  none
attr source  sentPk
attr title  "packets sent, vector(packetBytes)"
vector 171  University.whttpStudents[4].tcpApp[0]  rcvdPk:vector(packetBytes)  ETV
attr interpolationmode  none
attr source  rcvdPk
attr title  "packets received, vector(packetBytes)"
vector 173  University.whttpStudents[4].tcpApp[0]  endToEndDelay:vector  ETV
attr interpolationmode  none
attr source  messageAge(rcvdPk)
attr title  "end-to-end delay, vector"
attr unit  s
vector 343  University.whttpStudents[4].wlan[0].outputHook[0]  "thruput (bit/sec)"  ETV
vector 344  University.whttpStudents[4].wlan[0].outputHook[0]  packet/sec  ETV
vector 345  University.whttpStudents[4].wlan[0].inputHook[0]  "thruput (bit/sec)"  ETV
vector 346  University.whttpStudents[4].wlan[0].inputHook[0]  packet/sec  ETV
vector 97  University.Server.tcpApp[1]  rcvdPk:vector(packetBytes)  ETV
attr interpolationmode  none
attr source  rcvdPk
attr title  "packets received, vector(packetBytes)"
vector 99  University.Server.tcpApp[1]  endToEndDelay:vector  ETV
attr interpolationmode  none
attr source  messageAge(rcvdPk)
attr title  "end-to-end delay, vector"
attr unit  s
vector 98  University.Server.tcpApp[1]  sentPk:vector(packetBytes)  ETV
attr interpolationmode  none
attr source  sentPk
attr title  "packets sent, vector(packetBytes)"
vector 135  University.whttpStudents[1].tcpApp[0]  rcvdPk:vector(packetBytes)  ETV
attr interpolationmode  none
attr source  rcvdPk
attr title  "packets received, vector(packetBytes)"
vector 137  University.whttpStudents[1].tcpApp[0]  endToEndDelay:vector  ETV
attr interpolationmode  none
attr source  messageAge(rcvdPk)
attr title  "end-to-end delay, vector"
attr unit  s
vector 138  University.whttpStudents[1].tcpApp[0]  numActiveSessions:vector  ETV
attr interpolationmode  sample-hold
attr source  sum(connect)
attr title  "number of active sessions, vector"
vector 363  University.whttpStudents[6].wlan[0].outputHook[0]  "thruput (bit/sec)"  ETV
vector 364  University.whttpStudents[6].wlan[0].outputHook[0]  packet/sec  ETV
vector 365  University.whttpStudents[6].wlan[0].inputHook[0]  "thruput (bit/sec)"  ETV
vector 366  University.whttpStudents[6].wlan[0].inputHook[0]  packet/sec  ETV
vector 136  University.whttpStudents[1].tcpApp[0]  sentPk:vector(packetBytes)  ETV
attr interpolationmode  none
attr source  sentPk
attr title  "packets sent, vector(packetBytes)"
vector 150  University.whttpStudents[2].tcpApp[0]  numActiveSessions:vector  ETV
attr interpolationmode  sample-hold
attr source  sum(connect)
attr title  "number of active sessions, vector"
vector 305  University.whttpStudents[0].wlan[0].inputHook[0]  "thruput (bit/sec)"  ETV
vector 306  University.whttpStudents[0].wlan[0].inputHook[0]  packet/sec  ETV
vector 375  University.whttpStudents[7].wlan[0].inputHook[0]  "thruput (bit/sec)"  ETV
vector 376  University.whttpStudents[7].wlan[0].inputHook[0]  packet/sec  ETV
vector 325  University.whttpStudents[2].wlan[0].inputHook[0]  "thruput (bit/sec)"  ETV
vector 326  University.whttpStudents[2].wlan[0].inputHook[0]  packet/sec  ETV
vector 148  University.whttpStudents[2].tcpApp[0]  sentPk:vector(packetBytes)  ETV
attr interpolationmode  none
attr source  sentPk
attr title  "packets sent, vector(packetBytes)"
vector 323  University.whttpStudents[2].wlan[0].outputHook[0]  "thruput (bit/sec)"  ETV
vector 324  University.whttpStudents[2].wlan[0].outputHook[0]  packet/sec  ETV
vector 126  University.whttpStudents[0].tcpApp[0]  numActiveSessions:vector  ETV
attr interpolationmode  sample-hold
attr source  sum(connect)
attr title  "number of active sessions, vector"
vector 124  University.whttpStudents[0].tcpApp[0]  sentPk:vector(packetBytes)  ETV
attr interpolationmode  none
attr source  sentPk
attr title  "packets sent, vector(packetBytes)"
vector 303  University.whttpStudents[0].wlan[0].outputHook[0]  "thruput (bit/sec)"  ETV
vector 304  University.whttpStudents[0].wlan[0].outputHook[0]  packet/sec  ETV
vector 147  University.whttpStudents[2].tcpApp[0]  rcvdPk:vector(packetBytes)  ETV
attr interpolationmode  none
attr source  rcvdPk
attr title  "packets received, vector(packetBytes)"
vector 149  University.whttpStudents[2].tcpApp[0]  endToEndDelay:vector  ETV
attr interpolationmode  none
attr source  messageAge(rcvdPk)
attr title  "end-to-end delay, vector"
attr unit  s
vector 123  University.whttpStudents[0].tcpApp[0]  rcvdPk:vector(packetBytes)  ETV
attr interpolationmode  none
attr source  rcvdPk
attr title  "packets received, vector(packetBytes)"
vector 125  University.whttpStudents[0].tcpApp[0]  endToEndDelay:vector  ETV
attr interpolationmode  none
attr source  messageAge(rcvdPk)
attr title  "end-to-end delay, vector"
attr unit  s
vector 210  University.whttpStudents[7].tcpApp[0]  numActiveSessions:vector  ETV
attr interpolationmode  sample-hold
attr source  sum(connect)
attr title  "number of active sessions, vector"
vector 208  University.whttpStudents[7].tcpApp[0]  sentPk:vector(packetBytes)  ETV
attr interpolationmode  none
attr source  sentPk
attr title  "packets sent, vector(packetBytes)"
vector 207  University.whttpStudents[7].tcpApp[0]  rcvdPk:vector(packetBytes)  ETV
attr interpolationmode  none
attr source  rcvdPk
attr title  "packets received, vector(packetBytes)"
vector 209  University.whttpStudents[7].tcpApp[0]  endToEndDelay:vector  ETV
attr interpolationmode  none
attr source  messageAge(rcvdPk)
attr title  "end-to-end delay, vector"
attr unit  s
vector 373  University.whttpStudents[7].wlan[0].outputHook[0]  "thruput (bit/sec)"  ETV
vector 374  University.whttpStudents[7].wlan[0].outputHook[0]  packet/sec  ETV
75	15128 3014961 503390 338945589 5.004516020157 3421.327541890262 85353 1400 1400 119494200 167291880000
76	3030089 3020660 505916 338939318 5.020074983816 3421.300074983816 85408 1400 1400 119571200 167399680000
77	6050749 3864645 503390 338945589 5.004516020157 3421.327541890262 85353 0.016345630589 0.172020223046 1468.4607294884 25.993330550898
94	9915394 48343 603019 338856003 5.804915079775 3420.830974531255 1500 1 1 1500 1500
95	9963737 56044 603019 338856003 5.804915079775 3420.830974531255 1500 81 8078950 1171386650 1.832581050751e+15
96	10019781 67659 603019 338856003 5.804915079775 3420.830974531255 1500 0.011122501204 0.023397456274 17.383283834261 0.2031968915582
97	10087440 25680 1324489 338446102 12.129111156589 3416.660264667568 671 1048576 1048576 703594496 7.377723022377e+14
98	10113120 21654 1324489 338446102 12.129111156589 3416.660264667568 671 1 1 671 671
99	10134774 30303 1324489 338446102 12.129111156589 3416.660264667568 671 1.700166641135 18.201635124116 3305.76935646 17961.278855893
123	10165077 6959 3518717 338792130 38.314356428897 3419.983479732094 181 2608 4705401 141785597 2.6446957838121e+14
124	10172036 6037 3092812 338728831 35.159987764413 3419.561181250699 181 1 1 181 181
125	10178073 8389 3518717 338792130 38.314356428897 3419.983479732094 181 0.072473632821 13.647534284591 524.45233551445 3530.0275796414
126	10186462 12086 3087759 338792130 35.125842544292 3419.983479732094 362 0 1 181 181
135	10198548 7377 1495648 337200100 13.019043950911 3404.622793237365 192 2689 8078950 175379971 3.5314542376396e+14
136	10205925 6357 2070523 337168171 21.707894371967 3404.328382119853 191 1 1 191 191
137	10212282 8870 1495648 337200100 13.019043950911 3404.622793237365 192 0.071909843085 16.935890213424 702.3961084869 4953.9627294282
138	10221152 12928 1495648 337200100 13.019043950911 3404.622793237365 383 -1 0 -192 192
147	10234080 7758 3387161 337164951 36.668775236629 3404.248531973213 202 4665 5781868 162578172 2.6652351282532e+14
148	10241838 6747 2732026 338506966 31.542524892081 3417.161287984563 203 1 1 203 203
149	10248585 9339 3387161 337164951 36.668775236629 3404.248531973213 202 0.106895172013 18.615296778749 686.85294570717 4872.2584882512
150	10257924 13473 2713386 338498970 31.46056484832 3417.125373939688 405 0 1 203 203
159	10271397 7636 569647 335851355 5.467327808689 3387.698777011137 199 81 5170055 141974064 2.03034281321e+14
160	10279033 6634 690501 338083656 6.590823145471 3413.22347700288 199 1 1 199 199
161	10285667 9208 569647 335851355 5.467327808689 3387.698777011137 199 0.035300008257 15.712901659485 623.73957543696 4060.1838817023
162	10294875 13447 569647 338082400 5.467327808689 3413.188473250393 398 -1 0 -199 199
171	10308322 7120 928882 337631714 7.978565237728 3407.929017743759 186 5039 3520239 129472586 1.5778724588833e+14
172	10315442 6171 874971 337317758 7.609116535481 3406.238262767507 186 1 1 186 186
173	10321613 8588 928882 337631714 7.978565237728 3407.929017743759 186 0.107215339378 13.609282322351 610.39370309327 4124.115471276
174	10330201 12346 869072 337631714 7.559881692112 3407.929017743759 372 0 1 186 186
183	10342547 7121 679494 338830811 6.291007423844 3420.161285775134 186 104 4154915 144921654 2.068612237502e+14
184	10349668 6160 602544 338733487 5.793774548493 3419.664748578264 186 1 1 186 186
185	10355828 8569 679494 338830811 6.291007423844 3420.161285775134 186 0.035877360856 19.098822139727 658.35911414043 4901.1118687709
186	10364397 12484 679494 338830811 6.291007423844 3420.161285775134 371 -1 0 -186 186
195	10376881 7098 869749 338428716 7.563003320426 3416.004999830901 185 613 3052826 139106066 1.8046769581617e+14
196	10383979 6180 803392 338855507 7.223159447038 3420.819842946648 186 1 1 186 186
197	10390159 8544 869749 338428716 7.563003320426 3416.004999830901 185 0.035438998565 21.499453599137 625.75736989712 4285.8736677918
198	10398703 12333 759529 338853508 7.024903875616 3420.785697670925 371 0 1 186 186
207	10411036 6455 4725373 338909205 52.277689292874 3421.169438690764 168 2157 3947302 133408110 1.9532303132326e+14
208	10417491 5581 4711097 338595463 52.203560246514 3417.662001254821 168 1 1 168 168
209	10423072 7763 4725373 338909205 52.277689292874 3421.169438690764 168 0.07412904636 18.397352832714 555.33479819212 3685.7699482588
210	10430835 11160 4704764 338909205 52.164722963596 3421.169438690764 336 0 1 168 168
219	10441995 3053500 507544 338942431 5.036422054405 3421.313714439869 84062 1400 1400 117686800 164761520000
220	13495495 3106070 507261 338941153 5.028061937959 3421.308061937959 85408 1400 1400 119571200 167399680000
221	16601565 3890414 507544 338942431 5.036422054405 3421.313714439869 84062 0.016319888222 0.176111902641 2304.7174014894 131.83336987272
235	20491979 22313 504741 338447002 5.013610997575 3416.684421101175 672 1 1 672 672
236	20514292 26397 511634 338449106 5.083777578013 3416.754542681613 672 1048576 1048576 704643072 7.3887181386547e+14
237	20540689 30986 504741 338447002 5.013610997575 3416.684421101175 672 1.724260074742 18.225773557723 3355.2675604014 18493.132161934
238	20571675 45325 504741 338448168 5.013610997575 3416.719681362862 1344 -1 0 -672 672
259	20617000 150939 623552 338845662 5.036031650482 3419.588493629958 3403 279293.63454259 11626998.299223 10945350419.202 6.3724265438482e+16
260	20767939 146721 623552 338845662 5.036031650482 3419.588493629958 3403 25 999.48024006288 1406862.207371 786792500.13807
261	20914660 154791 617621 338858835 5.005548813471 3419.873466507826 3401 279711.58559083 7710655.0850374 7146909218.2925 2.3578412520146e+16
262	21069451 152319 617621 338858835 5.005548813471 3419.873466507826 3401 25 958.42861149546 1403298.3885111 778939370.58082
267	21221770 154784 617623 338858837 5.005548813471 3419.873466507826 3401 279711.58559083 7710655.0850374 7146852184.9559 2.3578185623105e+16
268	21376554 152331 617623 338858837 5.005548813471 3419.873466507826 3401 25 958.42861149546 1403037.7917509 778688499.22488
269	21528885 150891 633004 338845660 5.076031650482 3419.588493629958 3403 279293.63454259 11626998.299223 10945394639.258 6.3727620470552e+16
270	21679776 146628 633004 338845660 5.076031650482 3419.588493629958 3403 25 999.48024006288 1406593.6451222 786588610.3664
271	21826404 133524 621043 338876876 5.025074983816 3420.025074983816 3416 285600 14544784 11814196056 7.6791359593487e+16
272	21959928 120471 621043 338876876 5.025074983816 3420.025074983816 3416 25 1241 1480743 887913997
273	22080399 155295 619736 338860590 5.015580146804 3419.883497841159 3401 285600 7676360.6822581 7147065523.5305 2.3570818464641e+16
274	22235694 153042 619736 338860590 5.015580146804 3419.883497841159 3401 25 960.0816033263 1403106.4744854 778828566.35162
275	22388736 148322 642652 338898100 5.119407568548 3420.119928070787 3370 165034.54120504 319060.43124824 961887176.14794 2.7461394581291e+14
276	22537058 143430 642652 338898100 5.119407568548 3420.119928070787 3370 14.446300875792 27.928959317948 84198.807435919 2104196.042793
277	22680488 131064 621041 338876874 5.025074983816 3420.025074983816 3416 285600 285600 975609600 2.7863410176e+14
278	22811552 117400 621041 338876874 5.025074983816 3420.025074983816 3416 25 25 85400 2135000
279	22928952 158786 619738 338909111 5.015580146804 3420.168788866904 3368 1830.4348559645 7541263.9361855 6139070175.1694 1.9711817913842e+16
280	23087738 158761 619738 338909111 5.015580146804 3420.168788866904 3368 2.7093160517884 925.79200623809 1312141.6593524 709218733.84442
281	23246499 158256 638723 338899193 5.101901271359 3420.127860098685 3357 597.33680096028 13624413.004524 10704963212.563 6.8869219280731e+16
282	23404755 158234 638723 338899193 5.101901271359 3420.127860098685 3357 1.8666775030009 1168.9056859381 1378503.9284576 804574256.34884
291	23562989 131064 619852 338875998 5.020074983816 3420.020074983816 3416 285600 285600 975609600 2.7863410176e+14
292	23694053 117400 619852 338875998 5.020074983816 3420.020074983816 3416 25 25 85400 2135000
293	23811453 148322 643870 338899260 5.124407568548 3420.124928070787 3370 165034.54120504 319060.43124824 961887176.14794 2.7461394581291e+14
294	23959775 143430 643870 338899260 5.124407568548 3420.124928070787 3370 14.446300875792 27.928959317948 84198.807435919 2104196.042793
295	24103205 158411 635582 338896291 5.088182255488 3420.114257882814 3357 1119.7045487645 19827320.437016 11161992143.75 7.7550131632454e+16
296	24261616 158404 635582 338896291 5.088182255488 3420.114257882814 3357 3.4990767148892 1804.8253452253 1416602.0648309 873653758.54593
297	24420020 158902 619859 338909243 5.015896757148 3420.169105477248 3368 1830.3125711851 7288995.3265112 6140270886.341 1.972052882181e+16
298	24578922 158867 619859 338909243 5.015896757148 3420.169105477248 3368 3.9718338064897 925.79200623809 1312255.9556511 709111757.52695
303	24737789 27254 3284966 338727508 35.125842544292 3418.272343909451 577 18.01440516192 282732.45635689 25446363.803236 3272980332135.4
304	24765043 27303 3284966 338727508 35.125842544292 3418.272343909451 577 0.056295016130999 883.53892611527 79500.525790239 31949240.217641
305	24792346 35022 2714340 338728827 7.049660161496 3418.272343909451 741 6.1932120103372 10583049.151195 970781403.72137 4.6653296295193e+15
306	24827368 35235 2714340 338728827 7.049660161496 3418.272343909451 741 0.027648267903291 882.72384469311 81385.530484489 32616239.499972
313	24862603 34311 682185 337166829 5.334375223559 3380.073848527714 729 10.813046741709 273536.0726695 32080282.917598 3969447509210
314	24896914 34416 682185 337166829 5.334375223559 3380.073848527714 729 0.033790771067839 854.8002270922 100226.42272037 38747284.24291
315	24931330 41379 682181 338733011 5.334375223559 3409.486870770371 878 4.4305496259633 10227265.600633 1222360595.5829 5.6420397203363e+15
316	24972709 41612 682181 338733011 5.334375223559 3409.486870770371 878 0.019779239401622 852.89539027544 102437.7889629 39462190.399044
323	25014321 34477 2915561 338910044 31.46056484832 3420.165241010626 733 5.1574158134803 271207.88030271 30378767.328055 3724574858471.6
324	25048798 34603 2915561 338910044 31.46056484832 3420.165241010626 733 0.016116924417126 847.52462594598 94909.036386869 36355717.584093
325	25083401 41466 2714437 338944980 7.049660198714 3420.201110651849 880 3.4399501907726 10536184.077351 1146569482.7364 5.1904637360892e+15
326	25124867 41696 2714437 338944980 7.049660198714 3420.201110651849 880 0.015356920494521 878.39507826589 96129.919910623 36325891.700086
333	25166563 32633 688774 338676340 5.280941200995 3417.258512501753 694 22.333147192577 267141.97599735 26522885.039743 3092687288403.2
334	25199196 32774 688774 338676340 5.280941200995 3417.258512501753 694 0.069791084976804 834.81867499171 82858.117239162 30184798.653704
335	25231970 39777 690497 338732999 5.280941200995 3418.323272352755 843 6.3847982693676 10017824.099901 1002784013.9977 4.3130671961824e+15
336	25271747 40004 690497 338732999 5.280941200995 3418.323272352755 843 0.028503563702534 834.81867499171 84158.963328237 30222388.550439
343	25311751 30125 1005815 337527914 7.559881692112 3406.238262767507 641 7.1126552825281 233968.70463598 23132048.963155 2618135621791.7
344	25341876 30212 1005815 337527914 7.559881692112 3406.238262767507 641 0.0222270477579 731.15220198744 72264.876278519 25550915.33125
345	25372088 37542 1016627 338733035 7.049660197968 3409.486870779798 798 5.5888924768452 8773826.4238493 876560933.51466 3.6137571060413e+15
346	25409630 37812 1016627 338733035 7.049660197968 3409.486870779798 798 0.024950412843059 731.15220198744 73579.308256339 25334369.266127
353	25447442 32006 701064 338730954 5.736797798631 3407.945983421007 682 4.8536232528337 267741.71559056 26001383.780345 2945035024603.1
354	25479448 32087 701064 338730954 5.736797798631 3407.945983421007 682 0.015167572665105 836.6928612205 81230.265339764 28742908.235166
355	25511535 39407 706945 338732989 5.770936905471 3409.486870753352 838 5.0863380472615 10006435.378494 987084760.40571 4.1867440250887e+15
356	25550942 39633 706945 338732989 5.770936905471 3409.486870753352 838 0.022706866282417 833.86961487453 82808.718997912 29333710.404513
363	25590575 31327 1497846 338853511 7.024903875616 3415.324454054493 666 6.3310137764859 253403.57030176 25069311.432655 2981409992938.7
364	25621902 31478 1497846 338853511 7.024903875616 3415.324454054493 666 0.019784418051519 791.88615719299 78319.05690948 29098821.043815
365	25653380 38578 1498481 338855503 7.049726189297 3419.662903450802 818 3.9535855722461 9368427.7642854 949249908.785 4.1743503559224e+15
366	25691958 38787 1498481 338855503 7.049726189297 3419.662903450802 818 0.017649935590384 780.70231369045 79665.771885201 29253811.247401
373	25730745 27648 7550098 338849147 52.164722963596 3417.505393658645 590 10.939823616399 271446.93778356 23905903.943062 2939912099132.1
374	25758393 27808 7550098 338849147 52.164722963596 3417.505393658645 590 0.034186948801247 848.27168057363 74683.934161473 28695964.752566
375	25786201 35289 2714376 338849143 7.049660195123 3419.662903456628 750 5.9726156962083 10207942.636733 919229191.19423 4.1484538042391e+15
376	25821490 35543 2714376 338849143 7.049660195123 3419.662903456628 750 0.026663462929501 850.66188639438 77119.060543098 29037750.975672
383	25857033 131064 621684 338877535 5.028061937959 3420.028061937959 3416 285600 285824 975615872 2.7863768573133e+14
384	25988097 117400 621684 338877535 5.028061937959 3420.028061937959 3416 25 26 85428 2136428
385	26105497 147111 625969 338843331 5.036422054405 3419.516422054405 3365 153859.90962588 328421.08890406 946289946.7306 2.6699279079469e+14
386	26252608 141797 625969 338843331 5.036422054405 3419.516422054405 3365 13.468129344002 29.901516917127 83085.602141756 2058232.3503087
393	26394405 148685 642971 338837526 5.083777578013 3419.336342524128 3152 432.63362572245 8897065.4968684 6830777736.8018 2.7258401974951e+16
394	26543090 148661 642971 338837526 5.083777578013 3419.336342524128 3152 0.26010849813802 748.27886332729 573189.09596516 192212206.72104
395	26691751 149673 642966 338943852 5.083777578013 3420.30660660198 3172 85.008313974729 200556.24863322 151607083.86686 12815279050267
396	26841424 149659 642966 338943852 5.083777578013 3420.30660660198 3172 0.3795014016729 626.51345157753 473701.21232615 125078983.24981
403	26991083 151258 623603 338847892 5.036148020482 3419.660395323512 3403 282967.19288733 11771115.114773 11172535322.713 6.5829971223102e+16
404	27142341 147148 623603 338847892 5.036148020482 3419.660395323512 3403 25 993.48170949872 1406885.3857661 785658638.46168
405	27289489 155022 617590 338922757 5.005543003471 3420.228335971882 3401 220067.06446069 7994112 7305249596.0319 2.4103718259774e+16