file 44798371 1471644114                                        
version 2
run _8to13off-7-20160819-23:35:36-13361
attr configname _8to13off
attr datetime 20160819-23:35:36
attr experiment _8to13off
attr inifile omnetpp.ini
attr iterationvars $0=8
attr iterationvars2 "$0=8, $repetition=7"
attr measurement $0=8
attr network University
attr processid 13361
attr repetition 7
attr replication #7
attr resultdir results
attr runnumber 7
attr seedset 7

vector 75  University.profLaptop.udpApp[0]  rcvdPk:vector(packetBytes)  ETV
attr interpolationmode  none
attr source  rcvdPk
attr title  "packets received, vector(packetBytes)"
vector 77  University.profLaptop.udpApp[0]  rcvdPkLifetime:vector  ETV
attr interpolationmode  none
attr source  messageAge(rcvdPk)
attr title  "received packet lifetime, vector"
attr unit  s
vector 219  University.whostVideoConf.udpApp[0]  rcvdPk:vector(packetBytes)  ETV
attr interpolationmode  none
attr source  rcvdPk
attr title  "packets received, vector(packetBytes)"
vector 221  University.whostVideoConf.udpApp[0]  rcvdPkLifetime:vector  ETV
attr interpolationmode  none
attr source  messageAge(rcvdPk)
attr title  "received packet lifetime, vector"
attr unit  s
vector 220  University.whostVideoConf.udpApp[0]  sentPk:vector(packetBytes)  ETV
attr interpolationmode  none
attr source  sentPk
attr title  "packets sent, vector(packetBytes)"
vector 76  University.profLaptop.udpApp[0]  sentPk:vector(packetBytes)  ETV
attr interpolationmode  none
attr source  sentPk
attr title  "packets sent, vector(packetBytes)"
vector 405  University.accessPoint.wlan[0].inputHook[0]  "thruput (bit/sec)"  ETV
vector 406  University.accessPoint.wlan[0].inputHook[0]  packet/sec  ETV
vector 413  University.accessPoint.eth[0].outputHook[0]  "thruput (bit/sec)"  ETV
vector 414  University.accessPoint.eth[0].outputHook[0]  packet/sec  ETV
vector 261  University.remoteR.eth[0].inputHook[0]  "thruput (bit/sec)"  ETV
vector 262  University.remoteR.eth[0].inputHook[0]  packet/sec  ETV
vector 259  University.remoteR.eth[0].outputHook[0]  "thruput (bit/sec)"  ETV
vector 260  University.remoteR.eth[0].outputHook[0]  packet/sec  ETV
vector 415  University.accessPoint.eth[0].inputHook[0]  "thruput (bit/sec)"  ETV
vector 416  University.accessPoint.eth[0].inputHook[0]  packet/sec  ETV
vector 403  University.accessPoint.wlan[0].outputHook[0]  "thruput (bit/sec)"  ETV
vector 404  University.accessPoint.wlan[0].outputHook[0]  packet/sec  ETV
vector 267  University.remoteR.ppp[0].outputHook[0]  "thruput (bit/sec)"  ETV
vector 268  University.remoteR.ppp[0].outputHook[0]  packet/sec  ETV
vector 269  University.remoteR.ppp[0].inputHook[0]  "thruput (bit/sec)"  ETV
vector 270  University.remoteR.ppp[0].inputHook[0]  packet/sec  ETV
vector 273  University.mainR.ppp[0].inputHook[0]  "thruput (bit/sec)"  ETV
vector 274  University.mainR.ppp[0].inputHook[0]  packet/sec  ETV
vector 279  University.mainR.ppp[2].outputHook[0]  "thruput (bit/sec)"  ETV
vector 280  University.mainR.ppp[2].outputHook[0]  packet/sec  ETV
vector 297  University.Server.ppp[0].inputHook[0]  "thruput (bit/sec)"  ETV
vector 298  University.Server.ppp[0].inputHook[0]  packet/sec  ETV
vector 295  University.Server.ppp[0].outputHook[0]  "thruput (bit/sec)"  ETV
vector 296  University.Server.ppp[0].outputHook[0]  packet/sec  ETV
vector 281  University.mainR.ppp[2].inputHook[0]  "thruput (bit/sec)"  ETV
vector 282  University.mainR.ppp[2].inputHook[0]  packet/sec  ETV
vector 271  University.mainR.ppp[0].outputHook[0]  "thruput (bit/sec)"  ETV
vector 272  University.mainR.ppp[0].outputHook[0]  packet/sec  ETV
vector 198  University.whttpStudents[6].tcpApp[0]  numActiveSessions:vector  ETV
attr interpolationmode  sample-hold
attr source  sum(connect)
attr title  "number of active sessions, vector"
vector 383  University.whostVideoConf.wlan[0].outputHook[0]  "thruput (bit/sec)"  ETV
vector 384  University.whostVideoConf.wlan[0].outputHook[0]  packet/sec  ETV
vector 291  University.profLaptop.ppp[0].outputHook[0]  "thruput (bit/sec)"  ETV
vector 292  University.profLaptop.ppp[0].outputHook[0]  packet/sec  ETV
vector 277  University.mainR.ppp[1].inputHook[0]  "thruput (bit/sec)"  ETV
vector 278  University.mainR.ppp[1].inputHook[0]  packet/sec  ETV
vector 395  University.whostFTP.wlan[0].inputHook[0]  "thruput (bit/sec)"  ETV
vector 396  University.whostFTP.wlan[0].inputHook[0]  packet/sec  ETV
vector 196  University.whttpStudents[6].tcpApp[0]  sentPk:vector(packetBytes)  ETV
attr interpolationmode  none
attr source  sentPk
attr title  "packets sent, vector(packetBytes)"
vector 94  University.Server.tcpApp[0]  rcvdPk:vector(packetBytes)  ETV
attr interpolationmode  none
attr source  rcvdPk
attr title  "packets received, vector(packetBytes)"
vector 96  University.Server.tcpApp[0]  endToEndDelay:vector  ETV
attr interpolationmode  none
attr source  messageAge(rcvdPk)
attr title  "end-to-end delay, vector"
attr unit  s
vector 95  University.Server.tcpApp[0]  sentPk:vector(packetBytes)  ETV
attr interpolationmode  none
attr source  sentPk
attr title  "packets sent, vector(packetBytes)"
vector 385  University.whostVideoConf.wlan[0].inputHook[0]  "thruput (bit/sec)"  ETV
vector 386  University.whostVideoConf.wlan[0].inputHook[0]  packet/sec  ETV
vector 275  University.mainR.ppp[1].outputHook[0]  "thruput (bit/sec)"  ETV
vector 276  University.mainR.ppp[1].outputHook[0]  packet/sec  ETV
vector 293  University.profLaptop.ppp[0].inputHook[0]  "thruput (bit/sec)"  ETV
vector 294  University.profLaptop.ppp[0].inputHook[0]  packet/sec  ETV
vector 393  University.whostFTP.wlan[0].outputHook[0]  "thruput (bit/sec)"  ETV
vector 394  University.whostFTP.wlan[0].outputHook[0]  packet/sec  ETV
vector 375  University.whttpStudents[7].wlan[0].inputHook[0]  "thruput (bit/sec)"  ETV
vector 376  University.whttpStudents[7].wlan[0].inputHook[0]  packet/sec  ETV
vector 373  University.whttpStudents[7].wlan[0].outputHook[0]  "thruput (bit/sec)"  ETV
vector 374  University.whttpStudents[7].wlan[0].outputHook[0]  packet/sec  ETV
vector 325  University.whttpStudents[2].wlan[0].inputHook[0]  "thruput (bit/sec)"  ETV
vector 326  University.whttpStudents[2].wlan[0].inputHook[0]  packet/sec  ETV
vector 323  University.whttpStudents[2].wlan[0].outputHook[0]  "thruput (bit/sec)"  ETV
vector 324  University.whttpStudents[2].wlan[0].outputHook[0]  packet/sec  ETV
vector 147  University.whttpStudents[2].tcpApp[0]  rcvdPk:vector(packetBytes)  ETV
attr interpolationmode  none
attr source  rcvdPk
attr title  "packets received, vector(packetBytes)"
vector 149  University.whttpStudents[2].tcpApp[0]  endToEndDelay:vector  ETV
attr interpolationmode  none
attr source  messageAge(rcvdPk)
attr title  "end-to-end delay, vector"
attr unit  s
vector 150  University.whttpStudents[2].tcpApp[0]  numActiveSessions:vector  ETV
attr interpolationmode  sample-hold
attr source  sum(connect)
attr title  "number of active sessions, vector"
vector 195  University.whttpStudents[6].tcpApp[0]  rcvdPk:vector(packetBytes)  ETV
attr interpolationmode  none
attr source  rcvdPk
attr title  "packets received, vector(packetBytes)"
vector 197  University.whttpStudents[6].tcpApp[0]  endToEndDelay:vector  ETV
attr interpolationmode  none
attr source  messageAge(rcvdPk)
attr title  "end-to-end delay, vector"
attr unit  s
vector 363  University.whttpStudents[6].wlan[0].outputHook[0]  "thruput (bit/sec)"  ETV
vector 364  University.whttpStudents[6].wlan[0].outputHook[0]  packet/sec  ETV
vector 207  University.whttpStudents[7].tcpApp[0]  rcvdPk:vector(packetBytes)  ETV
attr interpolationmode  none
attr source  rcvdPk
attr title  "packets received, vector(packetBytes)"
vector 209  University.whttpStudents[7].tcpApp[0]  endToEndDelay:vector  ETV
attr interpolationmode  none
attr source  messageAge(rcvdPk)
attr title  "end-to-end delay, vector"
attr unit  s
vector 210  University.whttpStudents[7].tcpApp[0]  numActiveSessions:vector  ETV
attr interpolationmode  sample-hold
attr source  sum(connect)
attr title  "number of active sessions, vector"
vector 335  University.whttpStudents[3].wlan[0].inputHook[0]  "thruput (bit/sec)"  ETV
vector 336  University.whttpStudents[3].wlan[0].inputHook[0]  packet/sec  ETV
vector 160  University.whttpStudents[3].tcpApp[0]  sentPk:vector(packetBytes)  ETV
attr interpolationmode  none
attr source  sentPk
attr title  "packets sent, vector(packetBytes)"
vector 159  University.whttpStudents[3].tcpApp[0]  rcvdPk:vector(packetBytes)  ETV
attr interpolationmode  none
attr source  rcvdPk
attr title  "packets received, vector(packetBytes)"
vector 161  University.whttpStudents[3].tcpApp[0]  endToEndDelay:vector  ETV
attr interpolationmode  none
attr source  messageAge(rcvdPk)
attr title  "end-to-end delay, vector"
attr unit  s
vector 162  University.whttpStudents[3].tcpApp[0]  numActiveSessions:vector  ETV
attr interpolationmode  sample-hold
attr source  sum(connect)
attr title  "number of active sessions, vector"
vector 97  University.Server.tcpApp[1]  rcvdPk:vector(packetBytes)  ETV
attr interpolationmode  none
attr source  rcvdPk
attr title  "packets received, vector(packetBytes)"
vector 99  University.Server.tcpApp[1]  endToEndDelay:vector  ETV
attr interpolationmode  none
attr source  messageAge(rcvdPk)
attr title  "end-to-end delay, vector"
attr unit  s
vector 98  University.Server.tcpApp[1]  sentPk:vector(packetBytes)  ETV
attr interpolationmode  none
attr source  sentPk
attr title  "packets sent, vector(packetBytes)"
vector 235  University.whostFTP.tcpApp[0]  rcvdPk:vector(packetBytes)  ETV
attr interpolationmode  none
attr source  rcvdPk
attr title  "packets received, vector(packetBytes)"
vector 237  University.whostFTP.tcpApp[0]  endToEndDelay:vector  ETV
attr interpolationmode  none
attr source  messageAge(rcvdPk)
attr title  "end-to-end delay, vector"
attr unit  s
vector 238  University.whostFTP.tcpApp[0]  numActiveSessions:vector  ETV
attr interpolationmode  sample-hold
attr source  sum(connect)
attr title  "number of active sessions, vector"
vector 236  University.whostFTP.tcpApp[0]  sentPk:vector(packetBytes)  ETV
attr interpolationmode  none
attr source  sentPk
attr title  "packets sent, vector(packetBytes)"
vector 208  University.whttpStudents[7].tcpApp[0]  sentPk:vector(packetBytes)  ETV
attr interpolationmode  none
attr source  sentPk
attr title  "packets sent, vector(packetBytes)"
vector 186  University.whttpStudents[5].tcpApp[0]  numActiveSessions:vector  ETV
attr interpolationmode  sample-hold
attr source  sum(connect)
attr title  "number of active sessions, vector"
vector 305  University.whttpStudents[0].wlan[0].inputHook[0]  "thruput (bit/sec)"  ETV
vector 306  University.whttpStudents[0].wlan[0].inputHook[0]  packet/sec  ETV
vector 315  University.whttpStudents[1].wlan[0].inputHook[0]  "thruput (bit/sec)"  ETV
vector 316  University.whttpStudents[1].wlan[0].inputHook[0]  packet/sec  ETV
vector 345  University.whttpStudents[4].wlan[0].inputHook[0]  "thruput (bit/sec)"  ETV
vector 346  University.whttpStudents[4].wlan[0].inputHook[0]  packet/sec  ETV
vector 365  University.whttpStudents[6].wlan[0].inputHook[0]  "thruput (bit/sec)"  ETV
vector 366  University.whttpStudents[6].wlan[0].inputHook[0]  packet/sec  ETV
vector 355  University.whttpStudents[5].wlan[0].inputHook[0]  "thruput (bit/sec)"  ETV
vector 356  University.whttpStudents[5].wlan[0].inputHook[0]  packet/sec  ETV
vector 184  University.whttpStudents[5].tcpApp[0]  sentPk:vector(packetBytes)  ETV
attr interpolationmode  none
attr source  sentPk
attr title  "packets sent, vector(packetBytes)"
vector 183  University.whttpStudents[5].tcpApp[0]  rcvdPk:vector(packetBytes)  ETV
attr interpolationmode  none
attr source  rcvdPk
attr title  "packets received, vector(packetBytes)"
vector 185  University.whttpStudents[5].tcpApp[0]  endToEndDelay:vector  ETV
attr interpolationmode  none
attr source  messageAge(rcvdPk)
attr title  "end-to-end delay, vector"
attr unit  s
vector 353  University.whttpStudents[5].wlan[0].outputHook[0]  "thruput (bit/sec)"  ETV
vector 354  University.whttpStudents[5].wlan[0].outputHook[0]  packet/sec  ETV
vector 333  University.whttpStudents[3].wlan[0].outputHook[0]  "thruput (bit/sec)"  ETV
vector 334  University.whttpStudents[3].wlan[0].outputHook[0]  packet/sec  ETV
vector 148  University.whttpStudents[2].tcpApp[0]  sentPk:vector(packetBytes)  ETV
attr interpolationmode  none
attr source  sentPk
attr title  "packets sent, vector(packetBytes)"
vector 174  University.whttpStudents[4].tcpApp[0]  numActiveSessions:vector  ETV
attr interpolationmode  sample-hold
attr source  sum(connect)
attr title  "number of active sessions, vector"
vector 172  University.whttpStudents[4].tcpApp[0]  sentPk:vector(packetBytes)  ETV
attr interpolationmode  none
attr source  sentPk
attr title  "packets sent, vector(packetBytes)"
vector 343  University.whttpStudents[4].wlan[0].outputHook[0]  "thruput (bit/sec)"  ETV
vector 344  University.whttpStudents[4].wlan[0].outputHook[0]  packet/sec  ETV
vector 171  University.whttpStudents[4].tcpApp[0]  rcvdPk:vector(packetBytes)  ETV
attr interpolationmode  none
attr source  rcvdPk
attr title  "packets received, vector(packetBytes)"
vector 173  University.whttpStudents[4].tcpApp[0]  endToEndDelay:vector  ETV
attr interpolationmode  none
attr source  messageAge(rcvdPk)
attr title  "end-to-end delay, vector"
attr unit  s
vector 138  University.whttpStudents[1].tcpApp[0]  numActiveSessions:vector  ETV
attr interpolationmode  sample-hold
attr source  sum(connect)
attr title  "number of active sessions, vector"
vector 136  University.whttpStudents[1].tcpApp[0]  sentPk:vector(packetBytes)  ETV
attr interpolationmode  none
attr source  sentPk
attr title  "packets sent, vector(packetBytes)"
vector 126  University.whttpStudents[0].tcpApp[0]  numActiveSessions:vector  ETV
attr interpolationmode  sample-hold
attr source  sum(connect)
attr title  "number of active sessions, vector"
vector 124  University.whttpStudents[0].tcpApp[0]  sentPk:vector(packetBytes)  ETV
attr interpolationmode  none
attr source  sentPk
attr title  "packets sent, vector(packetBytes)"
vector 135  University.whttpStudents[1].tcpApp[0]  rcvdPk:vector(packetBytes)  ETV
attr interpolationmode  none
attr source  rcvdPk
attr title  "packets received, vector(packetBytes)"
vector 137  University.whttpStudents[1].tcpApp[0]  endToEndDelay:vector  ETV
attr interpolationmode  none
attr source  messageAge(rcvdPk)
attr title  "end-to-end delay, vector"
attr unit  s
vector 303  University.whttpStudents[0].wlan[0].outputHook[0]  "thruput (bit/sec)"  ETV
vector 304  University.whttpStudents[0].wlan[0].outputHook[0]  packet/sec  ETV
vector 123  University.whttpStudents[0].tcpApp[0]  rcvdPk:vector(packetBytes)  ETV
attr interpolationmode  none
attr source  rcvdPk
attr title  "packets received, vector(packetBytes)"
vector 125  University.whttpStudents[0].tcpApp[0]  endToEndDelay:vector  ETV
attr interpolationmode  none
attr source  messageAge(rcvdPk)
attr title  "end-to-end delay, vector"
attr unit  s
vector 313  University.whttpStudents[1].wlan[0].outputHook[0]  "thruput (bit/sec)"  ETV
vector 314  University.whttpStudents[1].wlan[0].outputHook[0]  packet/sec  ETV
75	15128 3019464 771161 362454842 5.004863409461 3426.563238305683 85525 1400 1400 119735000 167629000000
76	3034592 3026192 776983 362455400 5.031196751827 3426.591196751827 85540 1400 1400 119756000 167658400000
77	6060784 3869979 771161 362454842 5.004863409461 3426.563238305683 85525 0.016345614969 0.260949724419 1484.9625337224 26.786875776873
94	9930763 46287 1015554 362380760 6.141311454028 3425.351733250434 1435 1 1 1435 1435
95	9977050 53725 1015554 362380760 6.141311454028 3425.351733250434 1435 2502 5325250 1215998893 2.0325532955526e+15
96	10030775 64645 1015554 362380760 6.141311454028 3425.351733250434 1435 0.013190962899 0.031788722928 19.623978062618 0.27064263901235
97	10095420 28360 1478496 362452589 10.446834930235 3426.45803571438 742 1048576 1048576 778043392 8.1583762780979e+14
98	10123780 23908 1478496 362452589 10.446834930235 3426.45803571438 742 1 1 742 742
99	10147688 33481 1478496 362452589 10.446834930235 3426.45803571438 742 1.379354372123 17.987776103475 3327.5034462771 17337.775361877
123	10181169 6266 6799251 362236667 61.765395011975 3424.192524879213 163 3403 4028715 135645968 2.0931011276908e+14
124	10187435 5435 6415740 361657332 57.435361843303 3419.230826728471 163 1 1 163 163
125	10192870 7537 6799251 362236667 61.765395011975 3424.192524879213 163 0.065436641878 23.641318649803 521.53798195856 3400.7321495021
126	10200407 10845 6412202 362236667 57.403442122363 3424.192524879213 326 0 1 163 163
135	10211252 6751 6440314 362197796 57.554982493848 3423.884148050611 175 4475 4605944 152487541 2.7014253497264e+14
136	10218003 5838 6405396 361459182 57.275483786528 3417.037284926782 175 1 1 175 175
137	10223841 8109 6440314 362197796 57.554982493848 3423.884148050611 175 0.096575070879 37.578792454273 608.57589225412 5041.605297519
138	10231950 11692 6403571 362197796 57.243546055816 3423.884148050611 350 0 1 175 175
147	10243642 6701 1133065 360944559 6.661125716499 3413.250570550065 174 7424 4249315 151302176 2.5507185890026e+14
148	10250343 5768 2473715 360527145 25.850977416039 3410.823599108913 173 1 1 173 173
149	10256111 8057 1133065 360944559 6.661125716499 3413.250570550065 174 0.100495863478 22.072086197236 593.2221602107 4140.7277857754
150	10264168 11737 1133065 360944559 6.661125716499 3413.250570550065 347 -1 0 -174 174
159	10275905 6922 1396813 361201629 8.631542926618 3415.493661006382 180 10271 4253522 153342929 2.3674833767728e+14
160	10282827 5973 1290313 361133692 7.835762268876 3415.05715510786 180 1 1 180 180
161	10288800 8312 1396813 361201629 8.631542926618 3415.493661006382 180 0.129682903822 17.713869157862 668.11388298517 4984.0247519432
162	10297112 12101 1396813 361201629 8.631542926618 3415.493661006382 359 -1 0 -180 180
171	10309213 7397 5882869 361947048 51.780882054357 3420.883033341435 192 6827 5151206 155106730 2.5168475047309e+14
172	10316610 6400 5693751 361817367 48.366110879295 3420.07887089148 192 1 1 192 192
173	10323010 8887 5882869 361947048 51.780882054357 3420.883033341435 192 0.097603719982 13.812352263171 619.59436889616 3807.2754565173
174	10331897 12801 5674106 361947048 48.271750609817 3420.883033341435 384 0 1 192 192
183	10344698 6573 1955617 362415264 18.038779399925 3425.819780483725 171 3224 5325250 147142155 2.6366093206422e+14
184	10351271 5676 1810200 362303297 17.106004891959 3424.821559301943 171 1 1 171 171
185	10356947 7886 1955617 362415264 18.038779399925 3425.819780483725 171 0.112631582807 29.750121632999 563.92861156114 4311.0032052625
186	10364833 11361 1800852 362415264 17.055463413041 3425.819780483725 342 0 1 171 171
195	10376194 7523 1185334 362411707 6.999842741695 3425.626611921265 196 2829 3743281 148679208 2.2429124005311e+14
196	10383717 6516 1012413 362380346 6.127100379705 3425.338515197472 196 1 1 196 196
197	10390233 9065 1185334 362411707 6.999842741695 3425.626611921265 196 0.065291819709 12.891145739224 574.64984193024 3575.0732687253
198	10399298 13049 990315 362411707 6.025964414007 3425.626611921265 392 0 1 196 196
207	10412347 7140 1286296 361875816 7.549854917401 3420.349226274976 186 2502 4970276 175603564 3.2937841467323e+14
208	10419487 6132 1789489 361309700 16.876935350331 3416.207527812689 185 1 1 185 185
209	10425619 8574 1286296 361875816 7.549854917401 3420.349226274976 186 0.069030896065 38.502334933871 700.23630205414 6099.7446289631
210	10434193 12490 1286296 361875816 7.549854917401 3420.349226274976 371 -1 0 -186 186
219	10446683 3057534 772177 362454894 5.009279272522 3426.567543806796 84158 1400 1400 117821200 164949680000
220	13504217 3111730 776188 362455293 5.026892690714 3426.586892690714 85540 1400 1400 119756000 167658400000
221	16615947 3895294 772177 362454894 5.009279272522 3426.567543806796 84158 0.016319201717 0.210158821314 2374.0627589931 138.36949403757
235	20511241 24686 1480076 362453195 10.465351887322 3426.476286157661 742 1 1 742 742
236	20535927 29149 1481417 362454418 10.527990855335 3426.539102590585 742 1048576 1048576 778043392 8.1583762780979e+14
237	20565076 34258 1480076 362453195 10.465351887322 3426.476286157661 742 1.39789832921 18.006266060562 3361.5872550373 17704.695867974
238	20599334 50121 1480076 362453937 10.465351887322 3426.508033799725 1484 -1 0 -742 742
259	20649455 151642 985227 362454846 5.003769354841 3425.560729795908 3409 278281.8980875 11519592.954895 11506639086.946 6.8518449238284e+16
260	20801097 147596 985227 362454846 5.003769354841 3425.560729795908 3409 25 981.27198811332 1505182.2321545 874140967.85477
261	20948693 156367 984711 362411955 5.001143478196 3424.627343848118 3404 280282.76477737 8399418.1533045 7792014303.2132 2.7553053910266e+16
262	21105060 154253 984711 362411955 5.001143478196 3424.627343848118 3404 25 944.77038123132 1499770.5960789 868205144.691
267	21259313 156357 985438 362411957 5.004494800971 3424.627343848118 3404 280282.76477737 8399418.1533045 7792013765.1833 2.7553638148964e+16
268	21415670 154219 985438 362411957 5.004494800971 3424.627343848118 3404 25 944.77038123132 1499506.9083556 867925094.17733
269	21569889 151798 986628 362454844 5.010011657197 3425.560729795908 3409 284322.01494814 11460699.741561 11504574166.424 6.8618161354615e+16
270	21721687 147868 986628 362454844 5.010011657197 3425.560729795908 3409 25 1017.7783718152 1504839.9544629 875952653.54086
271	21869555 133927 989906 362418446 5.023338556259 3425.036196751827 3421 285600 14702128 12380113162.815 8.1483654280318e+16
272	22003482 120792 989906 362418446 5.023338556259 3425.036196751827 3421 25 1278 1579510.0271801 979637452.25165
273	22124274 156786 987494 362412518 5.013095479675 3424.638300514784 3404 285600 8400757.6440245 7791568948.6655 2.762670002559e+16
274	22281060 154916 987494 362412518 5.013095479675 3424.638300514784 3404 25 943.27764571002 1499406.8563778 866431446.17263
275	22435976 150546 1019581 362415704 5.122723502433 3424.838238305683 3369 174147.75035057 329268.1987192 962016858.38285 2.7472634873712e+14
276	22586522 146756 1019581 362415704 5.122723502433 3424.838238305683 3369 15.244025765981 28.822496386485 84210.159172168 2105057.3165627
277	22733278 131290 992724 362418444 5.036196751827 3425.036196751827 3421 285600 285600 977037600 2.7904193856e+14
278	22864568 117606 992724 362418444 5.036196751827 3425.036196751827 3421 25 25 85525 2138125
279	22982174 158531 987496 362421488 5.013095479675 3425.093039781204 3363 5702.9803049053 8021482.6743555 6771389729.5286 2.3052383601578e+16
280	23140705 158480 987496 362421488 5.013095479675 3425.093039781204 3363 1.3476807060834 918.52830544066 1406782.7332807 790745788.54632
281	23299185 158205 989904 362439464 5.023338556259 3425.317116015652 3358 1331.4337595244 14529987.450521 11283683773.526 7.3278102294282e+16
282	23457390 158263 989904 362439464 5.023338556259 3425.317116015652 3358 4.1607304985136 1238.5570386447 1477085.921938 891388506.24943
291	23615653 131290 991561 362418432 5.031196751827 3425.031196751827 3421 285600 285600 977037600 2.7904193856e+14
292	23746943 117606 991561 362418432 5.031196751827 3425.031196751827 3421 25 25 85525 2138125
293	23864549 150546 1020790 362415723 5.127723502433 3424.843238305683 3369 174147.75035057 329268.1987192 962016858.38285 2.7472634873712e+14
294	24015095 146756 1020790 362415723 5.127723502433 3424.843238305683 3369 15.244025765981 28.822496386485 84210.159172168 2105057.3165627
295	24161851 158286 988077 362439247 5.015597347019 3425.309258006412 3359 1331.4342660148 26982103.127474 11991598390.632 8.7108116225868e+16
296	24320137 158331 988077 362439247 5.015597347019 3425.309258006412 3359 4.1607320812962 2363.7222672783 1536304.5832348 1003342008.2537
297	24478468 158504 988073 362421507 5.015597347019 3425.095424848548 3363 5702.464210123 8021482.6743555 6771016321.97 2.3040394054841e+16
298	24636972 158425 988073 362421507 5.015597347019 3425.095424848548 3363 1.3476807060834 918.63543041997 1406765.158889 790722142.26915
303	24795397 27200 6569749 362194851 57.403442122363 3422.264797354196 578 7.8454903527025 279640.07801563 25058197.52401 3173469696389.9
304	24822597 27290 6569749 362194851 57.403442122363 3422.264797354196 578 0.024517157352195 873.87524379885 78285.921997696 30975943.41537
305	24849887 34327 1801320 362194847 6.058989384408 3422.328951438384 728 5.5740006430642 10479911.866539 947757611.5791 4.4653079681581e+15
306	24884214 34567 1801320 362194847 6.058989384408 3422.328951438384 728 0.024883931442251 873.87524379885 79488.312344724 31253128.5625
313	24918781 30558 11352735 362117299 57.243546055816 3422.073553098587 647 6.7758161453708 262700.49468608 27259203.809567 3372701361902.7
314	24949339 30647 11352735 362117299 57.243546055816 3422.073553098587 647 0.021174425454284 820.93904589401 85163.547323312 32921378.967132
315	24979986 37053 1801332 362303133 6.058989386851 3423.302894239765 784 5.5739864953891 10062962.520268 1044309641.8981 4.819408608201e+15
316	25017039 37274 1801332 362303133 6.058989386851 3423.302894239765 784 0.024883868282987 838.58021002236 87550.177151765 33724600.003187
323	25054313 29518 1127423 360885398 5.59584506426 3411.82707677594 626 17.656595566472 274191.04769422 27586891.594189 3346515894555.4
324	25083831 29597 1127423 360885398 5.59584506426 3411.82707677594 626 0.055176861145226 856.84702404442 86187.076109639 32664786.039949
325	25113428 36407 1127419 362303127 5.599216137868 3419.230376703265 771 4.8480086737578 10282164.288533 1045406878.4057 4.710960884086e+15
326	25149835 36649 1127419 362303127 5.599216137868 3419.230376703265 771 0.02164289586499 856.84702404442 87637.047306875 32972121.806594
333	25186484 31712 2108010 361132582 7.803555368755 3382.820688479412 675 5.9299554947165 275443.00848152 28170729.768395 3372857367641.1
334	25218196 31842 2108010 361132582 7.803555368755 3382.820688479412 675 0.018531110920989 860.75940150475 88012.009524741 32922327.92603
335	25250038 38063 1290219 362303151 6.058989399221 3419.230376717772 808 6.4057643058095 10335550.321952 1064542693.1455 4.7215351721418e+15
336	25288101 38272 1290219 362303151 6.058989399221 3419.230376717772 808 0.028597162079507 861.34249123338 89243.471778849 33050665.185788
343	25326373 31092 5806316 361805507 48.271750609817 3417.699747195175 660 6.9090547656488 279518.26170729 27277927.913288 3335195143850.7
344	25357465 31212 5806316 361805507 48.271750609817 3417.699747195175 660 0.021590796142653 873.49456783529 85220.298093447 32552578.897949
345	25388677 38041 1801338 362303139 6.058989388009 3420.250955474213 806 6.717956251272 10490457.091746 1040733310.5621 4.7104528044273e+15
346	25426718 38249 1801338 362303139 6.058989388009 3420.250955474213 806 0.02999087612175 874.20475764547 87312.278843204 32997319.375123
353	25464967 28227 1956534 362415267 17.055463413041 3424.789992784619 601 8.307098920908 276410.83909883 26960647.201537 3406529062900
354	25493194 28356 1956534 362415267 17.055463413041 3424.789992784619 601 0.025959684127838 863.78387218385 84231.354877136 33251840.422996
355	25521550 35084 1801384 362415876 6.058989373504 3424.821055298239 745 6.7230927761108 10341953.569706 1017446641.6636 4.7691357858202e+15
356	25556634 35305 1801384 362415876 6.058989373504 3424.821055298239 745 0.030013807036209 861.86945808451 85291.863965083 33362661.468356
363	25591939 29500 1190340 362377770 6.025964414007 3412.671915776978 626 6.4876274698458 277366.45006694 27510067.842523 3326917240626.6
364	25621439 29581 1190340 362377770 6.025964414007 3412.671915776978 626 0.020273835843268 866.77015645919 85945.391266385 32473374.961392
365	25651020 36267 1801362 362303163 6.059484424887 3419.230376722076 769 7.5357798760208 10391181.984539 1032922417.779 4.6779251616329e+15
366	25687287 36498 1801362 362303163 6.059484424887 3419.230376722076 769 0.033641874446521 866.46089226715 86644.117763477 32753984.582868
373	25723785 34621 1068744 361852877 5.3644368718 3419.209721794999 736 9.0208029170747 280601.85297191 32538282.908724 4141125065231.1
374	25758406 34700 1068744 361852877 5.3644368718 3419.209721794999 736 0.028190009115858 876.88079053722 101658.20781401 40422766.521157
375	25793106 41535 1068740 362303115 5.3644368718 3420.293175322472 882 5.040480104128 10522329.51907 1239980660.8989 5.8850163236037e+15
376	25834641 41768 1068740 362303115 5.3644368718 3420.293175322472 882 0.022502143322 876.88079053722 103924.81256411 41163234.958485
383	25876409 131290 990597 362418220 5.026892690714 3425.026892690714 3421 285600 285824 977043872 2.7904552253133e+14
384	26007699 117606 990597 362418220 5.026892690714 3425.026892690714 3421 25 26 85553 2139553
385	26125305 148212 1016573 362413436 5.133306747618 3424.687543806796 3368 190167.95538664 330028.86079516 946781810.41593 2.6710948500057e+14
386	26273517 143353 1016573 362413436 5.133306747618 3424.687543806796 3368 16.646354638186 29.779088233118 83129.145214915 2059224.7298653
393	26416870 147490 1030716 362416811 5.16860598481 3424.222695738563 3127 264.20282089607 9904789.2331753 7556406475.0631 3.2328657655564e+16
394	26564360 147523 1030716 362416811 5.16860598481 3424.222695738563 3127 0.41548845082723 831.97796520719 634063.76105079 227918347.76065
395	26711883 147745 1010525 362417217 5.10808083782 3424.222695738563 3134 110.90461295574 208433.52678868 165508401.5222 15088703215013
396	26859628 147870 1010525 362417217 5.10808083782 3424.222695738563 3134 0.3465769154867 651.6456844666 517125.91399505 147264840.56466
403	27007498 151667 985269 362454853 5.003775164841 3425.560851925908 3409 282488.68853885 11659297.074524 11749888434.262 7.0698934492953e+16
404	27159165 147638 985269 362454853 5.003775164841 3425.560851925908 3409 25 981.27198811332 1505163.2036366 873791352.08807