file 44788752 1471642536                                        
version 2
run _8to13off-2-20160819-23:05:19-12661
attr configname _8to13off
attr datetime 20160819-23:05:19
attr experiment _8to13off
attr inifile omnetpp.ini
attr iterationvars $0=8
attr iterationvars2 "$0=8, $repetition=2"
attr measurement $0=8
attr network University
attr processid 12661
attr repetition 2
attr replication #2
attr resultdir results
attr runnumber 2
attr seedset 2

vector 76  University.profLaptop.udpApp[0]  sentPk:vector(packetBytes)  ETV
attr interpolationmode  none
attr source  sentPk
attr title  "packets sent, vector(packetBytes)"
vector 75  University.profLaptop.udpApp[0]  rcvdPk:vector(packetBytes)  ETV
attr interpolationmode  none
attr source  rcvdPk
attr title  "packets received, vector(packetBytes)"
vector 77  University.profLaptop.udpApp[0]  rcvdPkLifetime:vector  ETV
attr interpolationmode  none
attr source  messageAge(rcvdPk)
attr title  "received packet lifetime, vector"
attr unit  s
vector 219  University.whostVideoConf.udpApp[0]  rcvdPk:vector(packetBytes)  ETV
attr interpolationmode  none
attr source  rcvdPk
attr title  "packets received, vector(packetBytes)"
vector 221  University.whostVideoConf.udpApp[0]  rcvdPkLifetime:vector  ETV
attr interpolationmode  none
attr source  messageAge(rcvdPk)
attr title  "received packet lifetime, vector"
attr unit  s
vector 220  University.whostVideoConf.udpApp[0]  sentPk:vector(packetBytes)  ETV
attr interpolationmode  none
attr source  sentPk
attr title  "packets sent, vector(packetBytes)"
vector 291  University.profLaptop.ppp[0].outputHook[0]  "thruput (bit/sec)"  ETV
vector 292  University.profLaptop.ppp[0].outputHook[0]  packet/sec  ETV
vector 277  University.mainR.ppp[1].inputHook[0]  "thruput (bit/sec)"  ETV
vector 278  University.mainR.ppp[1].inputHook[0]  packet/sec  ETV
vector 271  University.mainR.ppp[0].outputHook[0]  "thruput (bit/sec)"  ETV
vector 272  University.mainR.ppp[0].outputHook[0]  packet/sec  ETV
vector 269  University.remoteR.ppp[0].inputHook[0]  "thruput (bit/sec)"  ETV
vector 270  University.remoteR.ppp[0].inputHook[0]  packet/sec  ETV
vector 259  University.remoteR.eth[0].outputHook[0]  "thruput (bit/sec)"  ETV
vector 260  University.remoteR.eth[0].outputHook[0]  packet/sec  ETV
vector 415  University.accessPoint.eth[0].inputHook[0]  "thruput (bit/sec)"  ETV
vector 416  University.accessPoint.eth[0].inputHook[0]  packet/sec  ETV
vector 403  University.accessPoint.wlan[0].outputHook[0]  "thruput (bit/sec)"  ETV
vector 404  University.accessPoint.wlan[0].outputHook[0]  packet/sec  ETV
vector 385  University.whostVideoConf.wlan[0].inputHook[0]  "thruput (bit/sec)"  ETV
vector 386  University.whostVideoConf.wlan[0].inputHook[0]  packet/sec  ETV
vector 383  University.whostVideoConf.wlan[0].outputHook[0]  "thruput (bit/sec)"  ETV
vector 384  University.whostVideoConf.wlan[0].outputHook[0]  packet/sec  ETV
vector 405  University.accessPoint.wlan[0].inputHook[0]  "thruput (bit/sec)"  ETV
vector 406  University.accessPoint.wlan[0].inputHook[0]  packet/sec  ETV
vector 413  University.accessPoint.eth[0].outputHook[0]  "thruput (bit/sec)"  ETV
vector 414  University.accessPoint.eth[0].outputHook[0]  packet/sec  ETV
vector 261  University.remoteR.eth[0].inputHook[0]  "thruput (bit/sec)"  ETV
vector 262  University.remoteR.eth[0].inputHook[0]  packet/sec  ETV
vector 267  University.remoteR.ppp[0].outputHook[0]  "thruput (bit/sec)"  ETV
vector 268  University.remoteR.ppp[0].outputHook[0]  packet/sec  ETV
vector 273  University.mainR.ppp[0].inputHook[0]  "thruput (bit/sec)"  ETV
vector 274  University.mainR.ppp[0].inputHook[0]  packet/sec  ETV
vector 275  University.mainR.ppp[1].outputHook[0]  "thruput (bit/sec)"  ETV
vector 276  University.mainR.ppp[1].outputHook[0]  packet/sec  ETV
vector 293  University.profLaptop.ppp[0].inputHook[0]  "thruput (bit/sec)"  ETV
vector 294  University.profLaptop.ppp[0].inputHook[0]  packet/sec  ETV
vector 395  University.whostFTP.wlan[0].inputHook[0]  "thruput (bit/sec)"  ETV
vector 396  University.whostFTP.wlan[0].inputHook[0]  packet/sec  ETV
vector 279  University.mainR.ppp[2].outputHook[0]  "thruput (bit/sec)"  ETV
vector 280  University.mainR.ppp[2].outputHook[0]  packet/sec  ETV
vector 297  University.Server.ppp[0].inputHook[0]  "thruput (bit/sec)"  ETV
vector 298  University.Server.ppp[0].inputHook[0]  packet/sec  ETV
vector 295  University.Server.ppp[0].outputHook[0]  "thruput (bit/sec)"  ETV
vector 296  University.Server.ppp[0].outputHook[0]  packet/sec  ETV
vector 281  University.mainR.ppp[2].inputHook[0]  "thruput (bit/sec)"  ETV
vector 282  University.mainR.ppp[2].inputHook[0]  packet/sec  ETV
vector 393  University.whostFTP.wlan[0].outputHook[0]  "thruput (bit/sec)"  ETV
vector 394  University.whostFTP.wlan[0].outputHook[0]  packet/sec  ETV
vector 97  University.Server.tcpApp[1]  rcvdPk:vector(packetBytes)  ETV
attr interpolationmode  none
attr source  rcvdPk
attr title  "packets received, vector(packetBytes)"
vector 99  University.Server.tcpApp[1]  endToEndDelay:vector  ETV
attr interpolationmode  none
attr source  messageAge(rcvdPk)
attr title  "end-to-end delay, vector"
attr unit  s
vector 98  University.Server.tcpApp[1]  sentPk:vector(packetBytes)  ETV
attr interpolationmode  none
attr source  sentPk
attr title  "packets sent, vector(packetBytes)"
vector 235  University.whostFTP.tcpApp[0]  rcvdPk:vector(packetBytes)  ETV
attr interpolationmode  none
attr source  rcvdPk
attr title  "packets received, vector(packetBytes)"
vector 237  University.whostFTP.tcpApp[0]  endToEndDelay:vector  ETV
attr interpolationmode  none
attr source  messageAge(rcvdPk)
attr title  "end-to-end delay, vector"
attr unit  s
vector 238  University.whostFTP.tcpApp[0]  numActiveSessions:vector  ETV
attr interpolationmode  sample-hold
attr source  sum(connect)
attr title  "number of active sessions, vector"
vector 236  University.whostFTP.tcpApp[0]  sentPk:vector(packetBytes)  ETV
attr interpolationmode  none
attr source  sentPk
attr title  "packets sent, vector(packetBytes)"
vector 138  University.whttpStudents[1].tcpApp[0]  numActiveSessions:vector  ETV
attr interpolationmode  sample-hold
attr source  sum(connect)
attr title  "number of active sessions, vector"
vector 136  University.whttpStudents[1].tcpApp[0]  sentPk:vector(packetBytes)  ETV
attr interpolationmode  none
attr source  sentPk
attr title  "packets sent, vector(packetBytes)"
vector 94  University.Server.tcpApp[0]  rcvdPk:vector(packetBytes)  ETV
attr interpolationmode  none
attr source  rcvdPk
attr title  "packets received, vector(packetBytes)"
vector 96  University.Server.tcpApp[0]  endToEndDelay:vector  ETV
attr interpolationmode  none
attr source  messageAge(rcvdPk)
attr title  "end-to-end delay, vector"
attr unit  s
vector 95  University.Server.tcpApp[0]  sentPk:vector(packetBytes)  ETV
attr interpolationmode  none
attr source  sentPk
attr title  "packets sent, vector(packetBytes)"
vector 315  University.whttpStudents[1].wlan[0].inputHook[0]  "thruput (bit/sec)"  ETV
vector 316  University.whttpStudents[1].wlan[0].inputHook[0]  packet/sec  ETV
vector 313  University.whttpStudents[1].wlan[0].outputHook[0]  "thruput (bit/sec)"  ETV
vector 314  University.whttpStudents[1].wlan[0].outputHook[0]  packet/sec  ETV
vector 174  University.whttpStudents[4].tcpApp[0]  numActiveSessions:vector  ETV
attr interpolationmode  sample-hold
attr source  sum(connect)
attr title  "number of active sessions, vector"
vector 325  University.whttpStudents[2].wlan[0].inputHook[0]  "thruput (bit/sec)"  ETV
vector 326  University.whttpStudents[2].wlan[0].inputHook[0]  packet/sec  ETV
vector 355  University.whttpStudents[5].wlan[0].inputHook[0]  "thruput (bit/sec)"  ETV
vector 356  University.whttpStudents[5].wlan[0].inputHook[0]  packet/sec  ETV
vector 365  University.whttpStudents[6].wlan[0].inputHook[0]  "thruput (bit/sec)"  ETV
vector 366  University.whttpStudents[6].wlan[0].inputHook[0]  packet/sec  ETV
vector 335  University.whttpStudents[3].wlan[0].inputHook[0]  "thruput (bit/sec)"  ETV
vector 336  University.whttpStudents[3].wlan[0].inputHook[0]  packet/sec  ETV
vector 375  University.whttpStudents[7].wlan[0].inputHook[0]  "thruput (bit/sec)"  ETV
vector 376  University.whttpStudents[7].wlan[0].inputHook[0]  packet/sec  ETV
vector 305  University.whttpStudents[0].wlan[0].inputHook[0]  "thruput (bit/sec)"  ETV
vector 306  University.whttpStudents[0].wlan[0].inputHook[0]  packet/sec  ETV
vector 345  University.whttpStudents[4].wlan[0].inputHook[0]  "thruput (bit/sec)"  ETV
vector 346  University.whttpStudents[4].wlan[0].inputHook[0]  packet/sec  ETV
vector 172  University.whttpStudents[4].tcpApp[0]  sentPk:vector(packetBytes)  ETV
attr interpolationmode  none
attr source  sentPk
attr title  "packets sent, vector(packetBytes)"
vector 171  University.whttpStudents[4].tcpApp[0]  rcvdPk:vector(packetBytes)  ETV
attr interpolationmode  none
attr source  rcvdPk
attr title  "packets received, vector(packetBytes)"
vector 173  University.whttpStudents[4].tcpApp[0]  endToEndDelay:vector  ETV
attr interpolationmode  none
attr source  messageAge(rcvdPk)
attr title  "end-to-end delay, vector"
attr unit  s
vector 210  University.whttpStudents[7].tcpApp[0]  numActiveSessions:vector  ETV
attr interpolationmode  sample-hold
attr source  sum(connect)
attr title  "number of active sessions, vector"
vector 208  University.whttpStudents[7].tcpApp[0]  sentPk:vector(packetBytes)  ETV
attr interpolationmode  none
attr source  sentPk
attr title  "packets sent, vector(packetBytes)"
vector 150  University.whttpStudents[2].tcpApp[0]  numActiveSessions:vector  ETV
attr interpolationmode  sample-hold
attr source  sum(connect)
attr title  "number of active sessions, vector"
vector 148  University.whttpStudents[2].tcpApp[0]  sentPk:vector(packetBytes)  ETV
attr interpolationmode  none
attr source  sentPk
attr title  "packets sent, vector(packetBytes)"
vector 147  University.whttpStudents[2].tcpApp[0]  rcvdPk:vector(packetBytes)  ETV
attr interpolationmode  none
attr source  rcvdPk
attr title  "packets received, vector(packetBytes)"
vector 149  University.whttpStudents[2].tcpApp[0]  endToEndDelay:vector  ETV
attr interpolationmode  none
attr source  messageAge(rcvdPk)
attr title  "end-to-end delay, vector"
attr unit  s
vector 373  University.whttpStudents[7].wlan[0].outputHook[0]  "thruput (bit/sec)"  ETV
vector 374  University.whttpStudents[7].wlan[0].outputHook[0]  packet/sec  ETV
vector 207  University.whttpStudents[7].tcpApp[0]  rcvdPk:vector(packetBytes)  ETV
attr interpolationmode  none
attr source  rcvdPk
attr title  "packets received, vector(packetBytes)"
vector 209  University.whttpStudents[7].tcpApp[0]  endToEndDelay:vector  ETV
attr interpolationmode  none
attr source  messageAge(rcvdPk)
attr title  "end-to-end delay, vector"
attr unit  s
vector 162  University.whttpStudents[3].tcpApp[0]  numActiveSessions:vector  ETV
attr interpolationmode  sample-hold
attr source  sum(connect)
attr title  "number of active sessions, vector"
vector 160  University.whttpStudents[3].tcpApp[0]  sentPk:vector(packetBytes)  ETV
attr interpolationmode  none
attr source  sentPk
attr title  "packets sent, vector(packetBytes)"
vector 186  University.whttpStudents[5].tcpApp[0]  numActiveSessions:vector  ETV
attr interpolationmode  sample-hold
attr source  sum(connect)
attr title  "number of active sessions, vector"
vector 184  University.whttpStudents[5].tcpApp[0]  sentPk:vector(packetBytes)  ETV
attr interpolationmode  none
attr source  sentPk
attr title  "packets sent, vector(packetBytes)"
vector 159  University.whttpStudents[3].tcpApp[0]  rcvdPk:vector(packetBytes)  ETV
attr interpolationmode  none
attr source  rcvdPk
attr title  "packets received, vector(packetBytes)"
vector 161  University.whttpStudents[3].tcpApp[0]  endToEndDelay:vector  ETV
attr interpolationmode  none
attr source  messageAge(rcvdPk)
attr title  "end-to-end delay, vector"
attr unit  s
vector 183  University.whttpStudents[5].tcpApp[0]  rcvdPk:vector(packetBytes)  ETV
attr interpolationmode  none
attr source  rcvdPk
attr title  "packets received, vector(packetBytes)"
vector 185  University.whttpStudents[5].tcpApp[0]  endToEndDelay:vector  ETV
attr interpolationmode  none
attr source  messageAge(rcvdPk)
attr title  "end-to-end delay, vector"
attr unit  s
vector 135  University.whttpStudents[1].tcpApp[0]  rcvdPk:vector(packetBytes)  ETV
attr interpolationmode  none
attr source  rcvdPk
attr title  "packets received, vector(packetBytes)"
vector 137  University.whttpStudents[1].tcpApp[0]  endToEndDelay:vector  ETV
attr interpolationmode  none
attr source  messageAge(rcvdPk)
attr title  "end-to-end delay, vector"
attr unit  s
vector 353  University.whttpStudents[5].wlan[0].outputHook[0]  "thruput (bit/sec)"  ETV
vector 354  University.whttpStudents[5].wlan[0].outputHook[0]  packet/sec  ETV
vector 198  University.whttpStudents[6].tcpApp[0]  numActiveSessions:vector  ETV
attr interpolationmode  sample-hold
attr source  sum(connect)
attr title  "number of active sessions, vector"
vector 196  University.whttpStudents[6].tcpApp[0]  sentPk:vector(packetBytes)  ETV
attr interpolationmode  none
attr source  sentPk
attr title  "packets sent, vector(packetBytes)"
vector 195  University.whttpStudents[6].tcpApp[0]  rcvdPk:vector(packetBytes)  ETV
attr interpolationmode  none
attr source  rcvdPk
attr title  "packets received, vector(packetBytes)"
vector 197  University.whttpStudents[6].tcpApp[0]  endToEndDelay:vector  ETV
attr interpolationmode  none
attr source  messageAge(rcvdPk)
attr title  "end-to-end delay, vector"
attr unit  s
vector 323  University.whttpStudents[2].wlan[0].outputHook[0]  "thruput (bit/sec)"  ETV
vector 324  University.whttpStudents[2].wlan[0].outputHook[0]  packet/sec  ETV
vector 343  University.whttpStudents[4].wlan[0].outputHook[0]  "thruput (bit/sec)"  ETV
vector 344  University.whttpStudents[4].wlan[0].outputHook[0]  packet/sec  ETV
vector 333  University.whttpStudents[3].wlan[0].outputHook[0]  "thruput (bit/sec)"  ETV
vector 334  University.whttpStudents[3].wlan[0].outputHook[0]  packet/sec  ETV
vector 126  University.whttpStudents[0].tcpApp[0]  numActiveSessions:vector  ETV
attr interpolationmode  sample-hold
attr source  sum(connect)
attr title  "number of active sessions, vector"
vector 124  University.whttpStudents[0].tcpApp[0]  sentPk:vector(packetBytes)  ETV
attr interpolationmode  none
attr source  sentPk
attr title  "packets sent, vector(packetBytes)"
vector 303  University.whttpStudents[0].wlan[0].outputHook[0]  "thruput (bit/sec)"  ETV
vector 304  University.whttpStudents[0].wlan[0].outputHook[0]  packet/sec  ETV
vector 123  University.whttpStudents[0].tcpApp[0]  rcvdPk:vector(packetBytes)  ETV
attr interpolationmode  none
attr source  rcvdPk
attr title  "packets received, vector(packetBytes)"
vector 125  University.whttpStudents[0].tcpApp[0]  endToEndDelay:vector  ETV
attr interpolationmode  none
attr source  messageAge(rcvdPk)
attr title  "end-to-end delay, vector"
attr unit  s
vector 363  University.whttpStudents[6].wlan[0].outputHook[0]  "thruput (bit/sec)"  ETV
vector 364  University.whttpStudents[6].wlan[0].outputHook[0]  packet/sec  ETV
75	15128 3007132 183428 309665750 5.007037201501 3417.645135787736 85200 1400 1400 119280000 166992000000
76	3022260 3014484 183382 309665709 5.001037049116 3417.641037049116 85317 1400 1400 119443800 167221320000
77	6036744 3855488 183428 309665750 5.007037201501 3417.645135787736 85200 0.016345618499 0.21040802307 1462.1339262663 25.897675386523
94	9892232 45963 341915 309659658 8.253597908535 3417.508972120216 1428 1 1 1428 1428
95	9938195 53321 341915 309659658 8.253597908535 3417.508972120216 1428 383 7502875 1162028119 1.8742199387498e+15
96	9991516 64346 341915 309659658 8.253597908535 3417.508972120216 1428 0.027990422986 0.038719085177 40.496690714371 1.1498078074793
97	10055862 19690 264817 309068443 7.179867241885 3411.967086906496 515 1048576 1048576 540016640 5.6624848830464e+14
98	10075552 16600 264817 309068443 7.179867241885 3411.967086906496 515 1 1 515 515
99	10092152 23266 264817 309068443 7.179867241885 3411.967086906496 515 1.870219363436 22.049858685029 3332.8584985313 23464.943527629
123	10115418 7407 3561484 308326700 46.284305645417 3403.498744540146 193 383 4684099 147074175 2.1559298260054e+14
124	10122825 6416 3199756 308315836 44.318185562119 3403.257786158427 193 1 1 193 193
125	10129241 8922 3561484 308326700 46.284305645417 3403.498744540146 193 0.044726523422 35.363948308073 774.53932371738 7220.6839760442
126	10138163 12831 3189340 308326700 44.270165590161 3403.498744540146 386 0 1 193 193
135	10150994 6239 1028122 309414636 15.563077694091 3414.946220532612 163 3649 4958587 130777604 2.039536085181e+14
136	10157233 5396 341478 308376299 8.225580485549 3404.122822002371 163 1 1 163 163
137	10162629 7522 1028122 309414636 15.563077694091 3414.946220532612 163 0.095118087561 13.968361017357 654.04522138041 5050.1263713835
138	10170151 10807 340750 309414636 8.180422758269 3414.946220532612 326 0 1 163 163
147	10180958 6602 762824 307984611 11.732242601197 3397.414629730194 172 1397 5523471 138300347 2.3384479830598e+14
148	10187560 5753 752689 309659014 11.499967249481 3417.480972661104 173 1 1 173 173
149	10193313 7946 762824 307984611 11.732242601197 3397.414629730194 172 0.045666548781 16.227804005255 686.47269761071 5399.1535701407
150	10201259 11472 751490 309650834 11.456412506983 3417.436204045656 345 0 1 173 173
159	10212731 6312 974056 306023317 15.079220987496 3378.980856141426 165 9406 3709866 125145939 1.7706823382322e+14
160	10219043 5461 856049 305441389 14.54782127702 3373.747325692739 165 1 1 165 165
161	10224504 7602 974056 306023317 15.079220987496 3378.980856141426 165 0.13874224617 33.607598572553 683.2382124907 6571.3676170035
162	10232106 10921 841767 306023317 14.485010477134 3378.980856141426 330 0 1 165 165
171	10243027 7163 597271 309666816 10.307476071992 3417.656794363844 187 14803 5698121 167314816 2.9520885782079e+14
172	10250190 6184 553549 308681717 10.004081107156 3409.034674894522 187 1 1 187 187
173	10256374 8611 597271 309666816 10.307476071992 3417.656794363844 187 0.183995799441 16.76335247325 799.56608780369 6416.1269187206
174	10264985 12378 549223 309666816 9.958950282964 3417.656794363844 374 0 1 187 187
183	10277363 7186 1007600 309279504 15.235310536664 3414.325112114917 187 1526 7502875 162065022 2.9094413947847e+14
184	10284549 6211 869850 308762174 14.612123509773 3409.60373319455 187 1 1 187 187
185	10290760 8652 1007600 309279504 15.235310536664 3414.325112114917 187 0.089649353155 58.15466091964 906.72245617448 10861.0948512
186	10299412 12417 858556 309279504 14.558583872119 3414.325112114917 374 0 1 187 187
195	10311829 6453 1353407 308287661 17.733816666048 3401.60772167168 168 8435 3811241 146503753 2.4110671745279e+14
196	10318282 5626 1283528 309211843 17.279181470879 3413.930868416267 169 1 1 169 169
197	10323908 7772 1353407 308287661 17.733816666048 3401.60772167168 168 0.138542813392 19.14322169972 740.62399091716 6222.2532906443
198	10331680 11210 1281746 309209785 17.234032676059 3413.887313664083 337 0 1 169 169
207	10342890 7314 780498 309175015 12.441098623133 3412.968241487892 191 3670 3197558 139091585 1.9772596308856e+14
208	10350204 6340 645547 308786683 10.85534222683 3409.714624460541 191 1 1 191 191
209	10356544 8822 780498 309175015 12.441098623133 3412.968241487892 191 0.091912814117 20.85068206956 757.32532863929 6515.0776691002
210	10365366 12695 643902 309175015 10.81018441977 3412.968241487892 382 0 1 191 191
219	10378061 3042217 183517 309667125 5.017384107615 3417.65821347166 83816 1400 1400 117342400 164279360000
220	13420278 3099803 183600 309668565 5.028790169237 3417.668790169237 85317 1400 1400 119443800 167221320000
221	16520081 3877259 183517 309667125 5.017384107615 3417.65821347166 83816 0.01631984301 0.17765887763 2244.5431505065 126.98182029502
235	20397340 17119 265107 309068991 7.19653825656 3411.983775921171 515 1 1 515 515
236	20414459 20209 266468 309072772 7.28553281837 3412.072770482981 515 1048576 1048576 540016640 5.6624848830464e+14
237	20434668 23774 265107 309068991 7.19653825656 3411.983775921171 515 1.887867418253 22.066538699704 3353.274899164 23754.519700528
238	20458442 34751 265107 309070910 7.19653825656 3412.028490673681 1030 -1 0 -515 515
259	20493193 148811 200113 309661203 5.016993715782 3416.529367315988 3399 280814.30949038 11322074.166594 10863734480.478 6.1008438924459e+16
260	20642004 143774 200113 309661203 5.016993715782 3416.529367315988 3399 25 997.64244605472 1288097.8566168 680349945.78665
261	20785778 152553 200998 309517864 5.06917912107 3415.745110822547 3394 218808.43966075 6973353.7356627 5775623387.6536 1.6180891427901e+16
262	20938331 149931 200998 309517864 5.06917912107 3415.745110822547 3394 25 952.52967145397 1283366.9238204 673371454.85396
267	21088262 152552 201000 309517866 5.06917912107 3415.745110822547 3394 218808.43966075 6973353.7356627 5775562873.2569 1.6180683399097e+16
268	21240814 149949 201000 309517866 5.06917912107 3415.745110822547 3394 25 952.52967145397 1283102.461036 673141788.15952
269	21390763 148803 200111 309661201 5.016993715782 3416.529367315988 3399 280814.30949038 11322074.166594 10863673722.253 6.1007957795181e+16
270	21539566 143768 200111 309661201 5.016993715782 3416.529367315988 3399 25 997.64244605472 1287826.6087403 680110646.42832
271	21683334 133238 200040 309557003 5.006037049116 3416.006037049116 3412 285600 13772112 11770389912 7.4613561610468e+16
272	21816572 120114 200040 309557003 5.006037049116 3416.006037049116 3412 25 1215 1364979 786599523
273	21936686 153797 201456 309669049 5.080135787736 3416.677001530799 3395 198361.65123375 7384815.630478 5777150611.6254 1.6174768143834e+16
274	22090483 151067 201456 309515190 5.080135787736 3415.663552291514 3394 25 950.74058367751 1283176.4497489 673191042.13913
275	22241550 147582 201458 309517091 5.080135787736 3415.720135787736 3366 159631.80445567 334172.89926607 960159930.93239 2.7401593319622e+14
276	22389132 142504 201458 309517091 5.080135787736 3415.720135787736 3366 13.973372238766 29.251829417548 84047.613001785 2099613.8436703
277	22531636 130792 200038 309557001 5.006037049116 3416.006037049116 3412 285600 285600 974467200 2.7830783232e+14
278	22662428 117144 200038 309557001 5.006037049116 3416.006037049116 3412 25 25 85300 2132500
279	22779572 158032 203039 309561529 5.135908866439 3416.025785082314 3353 545.18949641829 7805688.3660795 4771317711.3945 1.2971270448764e+16
280	22937604 158115 203039 309561529 5.135908866439 3416.025785082314 3353 1.7037171763072 912.34886330154 1192213.7813088 609025399.34872
281	23095719 157678 203190 309580523 5.159353982655 3416.111028979195 3346 306.23074311987 12736082.647695 10660353676.77 6.6871607225187e+16
282	23253397 157687 203190 309580523 5.159353982655 3416.111028979195 3346 0.87437107728036 1086.9043763287 1262927.3743466 707955028.01134
291	23411084 130792 200028 309555785 5.001037049116 3416.001037049116 3412 285600 285600 974467200 2.7830783232e+14
292	23541876 117144 200028 309555785 5.001037049116 3416.001037049116 3412 25 25 85300 2132500
293	23659020 147582 201470 309517142 5.085135787736 3415.725135787736 3366 159631.80445567 334172.89926607 960159930.93239 2.7401593319622e+14
294	23806602 142504 201470 309517142 5.085135787736 3415.725135787736 3366 13.973372238766 29.251829417548 84047.613001785 2099613.8436703
295	23949106 157650 203162 309579225 5.153210186127 3416.104885182667 3345 845.42839130177 27624204.82209 11189657680.838 7.7019448370741e+16
296	24106756 157665 203162 309579225 5.153210186127 3416.104885182667 3345 0.87434147588302 2325.4436143088 1306949.8224046 784780918.03222
297	24264421 158037 203158 309565495 5.153210186127 3416.042969602002 3354 545.18939734111 7812412.7269506 4773127485.9378 1.297956528662e+16
298	24422458 158069 203158 309565495 5.153210186127 3416.042969602002 3354 1.703716866691 912.34886330154 1192521.3919976 609014812.92872
303	24580527 38186 3415609 308314843 44.270165590161 3398.652164861257 812 11.000762675033 243477.71593895 27201535.050224 2950268333274.7
304	24618713 38284 3415609 308314843 44.270165590161 3398.652164861257 812 0.034377383359478 760.86786230922 84980.035540247 28793526.551255
305	24656997 45262 549408 309658877 8.181582791681 3409.676765678619 961 5.6551840656225 8358725.4070642 1046505684.163 4.2592705909701e+15
306	24702259 45449 549408 309658877 8.181582791681 3409.676765678619 961 0.025246357435815 696.56045058869 87796.925209564 29832532.205999
313	24747708 31971 474460 309430174 8.180422758269 3414.007875610688 684 6.9845621229091 275631.57849396 24000657.3573 2865045726174.1
314	24779679 32071 474460 309430174 8.180422758269 3414.007875610688 684 0.021826756634091 861.34868279363 74981.740838016 27964558.168724
315	24811750 39561 474456 309658819 8.181684767135 3415.018965483 844 3.704718963589 10574602.772467 914945711.16793 4.0737962480878e+15
316	24851311 39779 474456 309658819 8.181684767135 3415.018965483 844 0.016538923944594 881.86146311364 76762.206504216 28527018.791206
323	24891090 33352 1360906 309650837 11.456412506983 3396.922813176425 708 7.2739851706111 264554.78222044 25400335.693517 2947603110862.5
324	24924442 33441 1360906 309650837 11.456412506983 3396.922813176425 708 0.02273120365816 826.73369443887 79354.07810472 28770009.782572
325	24957883 41213 549364 309658825 8.181582779177 3409.676765666115 874 4.63750595959 10254392.42117 963372763.56241 4.1772489553689e+15
326	24999096 41437 549364 309658825 8.181582779177 3409.676765666115 874 0.020703151605312 854.96617760657 80803.382311176 29224201.500781
333	25040533 32696 2410779 306035144 14.485010477134 3378.023940574959 696 10.731189194133 267900.40022631 23437395.362104 2597177378344
334	25073229 32785 2410779 306035144 14.485010477134 3378.023940574959 696 0.033534966231667 837.18875070722 73222.694657485 25349775.540072
335	25106014 39727 549388 309658853 8.181582786455 3409.676765673393 845 4.4451322909398 10046265.008487 879502051.90251 3.701955645308e+15
336	25145741 39963 549388 309658853 8.181582786455 3409.676765673393 845 0.019844340584553 837.18875070722 73793.581738066 25932757.818996
343	25185704 38599 2255263 309593567 9.958950282964 3416.170081222324 824 17.796588076748 266045.49059863 31155179.811992 3645667580247.8
344	25224303 38733 2255263 309593567 9.958950282964 3416.170081222324 824 0.055614337739839 831.39215812072 97335.548193921 35585333.785101
345	25263036 45431 549460 309623693 8.181582791363 3416.305918562932 967 4.4451322909398 9895479.105936 1175695204.6229 5.1049928263524e+15
346	25308467 45661 549460 309623693 8.181582791363 3416.305918562932 967 0.019844340584553 824.623258828 98551.072238111 35725654.580334
353	25354128 42113 1208927 309195031 14.558583872119 3412.505487528041 894 5.8056169203937 266004.63644853 30053305.218456 3452585335059.7
354	25396241 42173 1208927 309195031 14.558583872119 3412.505487528041 894 0.01814255287623 831.26448890166 93891.875303341 33698542.180261
355	25438414 49113 549370 309658835 8.181582780601 3413.739372143128 1042 4.1854531223263 10058412.75239 1154284442.0243 5.0273550504876e+15
356	25487527 49314 549370 309658835 8.181582780601 3413.739372143128 1042 0.018128110951926 838.20106269916 96768.390356989 35170571.598259
363	25536841 35606 7525811 309543000 17.234032676059 3415.924805719963 756 19.735892717072 273816.40813823 28015898.599963 3246488556328.2
364	25572447 35665 7525811 309543000 17.234032676059 3415.924805719963 756 0.06167466474085 855.67627543197 87527.704906699 31688801.240222
365	25608112 42510 549376 309565917 8.18158278402 3416.015363917663 902 4.3258471613234 10210399.274705 1057930879.3002 4.6427946546911e+15
366	25650622 42713 549376 309565917 8.18158278402 3416.015363917663 902 0.01931181768448 851.15965023649 88678.096717451 32486398.198657
373	25693335 36441 766103 309136734 10.81018441977 3411.525583268268 773 5.2182841994875 275783.24284393 25982195.300737 2846520380375.6
374	25729776 36512 766103 309136734 10.81018441977 3411.525583268268 773 0.016307138123398 861.82263388729 81171.148139894 27783061.331875
375	25766288 43401 549394 309658859 8.18158278708 3412.741845963042 921 6.2851965584836 10450088.294541 987334383.09296 4.071774655505e+15
376	25809689 43622 549394 309658859 8.18158278708 3412.741845963042 921 0.028058913207516 871.22968061041 82843.861368814 28517454.700405
383	25853311 130792 200232 309562152 5.028790169237 3416.028790169237 3412 285600 285824 974473472 2.7831141629133e+14
384	25984103 117144 200232 309562152 5.028790169237 3416.028790169237 3412 25 26 85328 2133928
385	26101247 145247 200152 309533155 5.017384107615 3415.897384107615 3365 157678.78478867 330987.05918188 944593153.66862 2.6620456497073e+14
386	26246494 139136 200152 309533155 5.017384107615 3415.897384107615 3365 13.802414634863 29.664861533882 82937.590185744 2052289.2694361
393	26385630 146043 203319 309643889 5.169461150926 3416.303054820476 3097 4371.4363581926 11024781.257871 5282689252.3216 1.9338240004678e+16
394	26531673 146034 203319 309643889 5.169461150926 3416.303054820476 3097 0.36428636318272 924.36523630963 443154.87198868 136164314.68731
395	26677707 146802 202564 309606252 5.124183484836 3416.211691479646 3114 71.165050661545 190777.53428984 114453037.55004 8289070620986.7
396	26824509 146840 202564 309606252 5.124183484836 3416.211691479646 3114 0.22239078331733 596.17979465574 357629.67948181 80906170.899973
403	26971349 148882 200120 309661217 5.017110085782 3416.529373125988 3399 284507.70204533 11459607.402892 11067644961.122 6.2883038518529e+16
404	27120231 143826 200120 309661217 5.017110085782 3416.529373125988 3399 25 997.75846373861 1288084.7563626 680337122.64389
405	27264057 152598 200958 309517817 5.06906419107 3415.745105012547 3394 221108.56751655 7233387.9515142 5933392346.7038 1.6672898795982e+16