file 44735715 1471642156                                        
version 2
run _8to13off-0-20160819-23:05:19-12659
attr configname _8to13off
attr datetime 20160819-23:05:19
attr experiment _8to13off
attr inifile omnetpp.ini
attr iterationvars $0=8
attr iterationvars2 "$0=8, $repetition=0"
attr measurement $0=8
attr network University
attr processid 12659
attr repetition 0
attr replication #0
attr resultdir results
attr runnumber 0
attr seedset 0

vector 219  University.whostVideoConf.udpApp[0]  rcvdPk:vector(packetBytes)  ETV
attr interpolationmode  none
attr source  rcvdPk
attr title  "packets received, vector(packetBytes)"
vector 221  University.whostVideoConf.udpApp[0]  rcvdPkLifetime:vector  ETV
attr interpolationmode  none
attr source  messageAge(rcvdPk)
attr title  "received packet lifetime, vector"
attr unit  s
vector 220  University.whostVideoConf.udpApp[0]  sentPk:vector(packetBytes)  ETV
attr interpolationmode  none
attr source  sentPk
attr title  "packets sent, vector(packetBytes)"
vector 76  University.profLaptop.udpApp[0]  sentPk:vector(packetBytes)  ETV
attr interpolationmode  none
attr source  sentPk
attr title  "packets sent, vector(packetBytes)"
vector 75  University.profLaptop.udpApp[0]  rcvdPk:vector(packetBytes)  ETV
attr interpolationmode  none
attr source  rcvdPk
attr title  "packets received, vector(packetBytes)"
vector 77  University.profLaptop.udpApp[0]  rcvdPkLifetime:vector  ETV
attr interpolationmode  none
attr source  messageAge(rcvdPk)
attr title  "received packet lifetime, vector"
attr unit  s
vector 171  University.whttpStudents[4].tcpApp[0]  rcvdPk:vector(packetBytes)  ETV
attr interpolationmode  none
attr source  rcvdPk
attr title  "packets received, vector(packetBytes)"
vector 173  University.whttpStudents[4].tcpApp[0]  endToEndDelay:vector  ETV
attr interpolationmode  none
attr source  messageAge(rcvdPk)
attr title  "end-to-end delay, vector"
attr unit  s
vector 174  University.whttpStudents[4].tcpApp[0]  numActiveSessions:vector  ETV
attr interpolationmode  sample-hold
attr source  sum(connect)
attr title  "number of active sessions, vector"
vector 269  University.remoteR.ppp[0].inputHook[0]  "thruput (bit/sec)"  ETV
vector 270  University.remoteR.ppp[0].inputHook[0]  packet/sec  ETV
vector 259  University.remoteR.eth[0].outputHook[0]  "thruput (bit/sec)"  ETV
vector 260  University.remoteR.eth[0].outputHook[0]  packet/sec  ETV
vector 415  University.accessPoint.eth[0].inputHook[0]  "thruput (bit/sec)"  ETV
vector 416  University.accessPoint.eth[0].inputHook[0]  packet/sec  ETV
vector 403  University.accessPoint.wlan[0].outputHook[0]  "thruput (bit/sec)"  ETV
vector 404  University.accessPoint.wlan[0].outputHook[0]  packet/sec  ETV
vector 385  University.whostVideoConf.wlan[0].inputHook[0]  "thruput (bit/sec)"  ETV
vector 386  University.whostVideoConf.wlan[0].inputHook[0]  packet/sec  ETV
vector 383  University.whostVideoConf.wlan[0].outputHook[0]  "thruput (bit/sec)"  ETV
vector 384  University.whostVideoConf.wlan[0].outputHook[0]  packet/sec  ETV
vector 405  University.accessPoint.wlan[0].inputHook[0]  "thruput (bit/sec)"  ETV
vector 406  University.accessPoint.wlan[0].inputHook[0]  packet/sec  ETV
vector 413  University.accessPoint.eth[0].outputHook[0]  "thruput (bit/sec)"  ETV
vector 414  University.accessPoint.eth[0].outputHook[0]  packet/sec  ETV
vector 261  University.remoteR.eth[0].inputHook[0]  "thruput (bit/sec)"  ETV
vector 262  University.remoteR.eth[0].inputHook[0]  packet/sec  ETV
vector 267  University.remoteR.ppp[0].outputHook[0]  "thruput (bit/sec)"  ETV
vector 268  University.remoteR.ppp[0].outputHook[0]  packet/sec  ETV
vector 279  University.mainR.ppp[2].outputHook[0]  "thruput (bit/sec)"  ETV
vector 280  University.mainR.ppp[2].outputHook[0]  packet/sec  ETV
vector 273  University.mainR.ppp[0].inputHook[0]  "thruput (bit/sec)"  ETV
vector 274  University.mainR.ppp[0].inputHook[0]  packet/sec  ETV
vector 291  University.profLaptop.ppp[0].outputHook[0]  "thruput (bit/sec)"  ETV
vector 292  University.profLaptop.ppp[0].outputHook[0]  packet/sec  ETV
vector 277  University.mainR.ppp[1].inputHook[0]  "thruput (bit/sec)"  ETV
vector 278  University.mainR.ppp[1].inputHook[0]  packet/sec  ETV
vector 271  University.mainR.ppp[0].outputHook[0]  "thruput (bit/sec)"  ETV
vector 272  University.mainR.ppp[0].outputHook[0]  packet/sec  ETV
vector 297  University.Server.ppp[0].inputHook[0]  "thruput (bit/sec)"  ETV
vector 298  University.Server.ppp[0].inputHook[0]  packet/sec  ETV
vector 295  University.Server.ppp[0].outputHook[0]  "thruput (bit/sec)"  ETV
vector 296  University.Server.ppp[0].outputHook[0]  packet/sec  ETV
vector 275  University.mainR.ppp[1].outputHook[0]  "thruput (bit/sec)"  ETV
vector 276  University.mainR.ppp[1].outputHook[0]  packet/sec  ETV
vector 293  University.profLaptop.ppp[0].inputHook[0]  "thruput (bit/sec)"  ETV
vector 294  University.profLaptop.ppp[0].inputHook[0]  packet/sec  ETV
vector 281  University.mainR.ppp[2].inputHook[0]  "thruput (bit/sec)"  ETV
vector 282  University.mainR.ppp[2].inputHook[0]  packet/sec  ETV
vector 395  University.whostFTP.wlan[0].inputHook[0]  "thruput (bit/sec)"  ETV
vector 396  University.whostFTP.wlan[0].inputHook[0]  packet/sec  ETV
vector 393  University.whostFTP.wlan[0].outputHook[0]  "thruput (bit/sec)"  ETV
vector 394  University.whostFTP.wlan[0].outputHook[0]  packet/sec  ETV
vector 150  University.whttpStudents[2].tcpApp[0]  numActiveSessions:vector  ETV
attr interpolationmode  sample-hold
attr source  sum(connect)
attr title  "number of active sessions, vector"
vector 148  University.whttpStudents[2].tcpApp[0]  sentPk:vector(packetBytes)  ETV
attr interpolationmode  none
attr source  sentPk
attr title  "packets sent, vector(packetBytes)"
vector 94  University.Server.tcpApp[0]  rcvdPk:vector(packetBytes)  ETV
attr interpolationmode  none
attr source  rcvdPk
attr title  "packets received, vector(packetBytes)"
vector 96  University.Server.tcpApp[0]  endToEndDelay:vector  ETV
attr interpolationmode  none
attr source  messageAge(rcvdPk)
attr title  "end-to-end delay, vector"
attr unit  s
vector 95  University.Server.tcpApp[0]  sentPk:vector(packetBytes)  ETV
attr interpolationmode  none
attr source  sentPk
attr title  "packets sent, vector(packetBytes)"
vector 138  University.whttpStudents[1].tcpApp[0]  numActiveSessions:vector  ETV
attr interpolationmode  sample-hold
attr source  sum(connect)
attr title  "number of active sessions, vector"
vector 325  University.whttpStudents[2].wlan[0].inputHook[0]  "thruput (bit/sec)"  ETV
vector 326  University.whttpStudents[2].wlan[0].inputHook[0]  packet/sec  ETV
vector 323  University.whttpStudents[2].wlan[0].outputHook[0]  "thruput (bit/sec)"  ETV
vector 324  University.whttpStudents[2].wlan[0].outputHook[0]  packet/sec  ETV
vector 315  University.whttpStudents[1].wlan[0].inputHook[0]  "thruput (bit/sec)"  ETV
vector 316  University.whttpStudents[1].wlan[0].inputHook[0]  packet/sec  ETV
vector 136  University.whttpStudents[1].tcpApp[0]  sentPk:vector(packetBytes)  ETV
attr interpolationmode  none
attr source  sentPk
attr title  "packets sent, vector(packetBytes)"
vector 313  University.whttpStudents[1].wlan[0].outputHook[0]  "thruput (bit/sec)"  ETV
vector 314  University.whttpStudents[1].wlan[0].outputHook[0]  packet/sec  ETV
vector 198  University.whttpStudents[6].tcpApp[0]  numActiveSessions:vector  ETV
attr interpolationmode  sample-hold
attr source  sum(connect)
attr title  "number of active sessions, vector"
vector 355  University.whttpStudents[5].wlan[0].inputHook[0]  "thruput (bit/sec)"  ETV
vector 356  University.whttpStudents[5].wlan[0].inputHook[0]  packet/sec  ETV
vector 375  University.whttpStudents[7].wlan[0].inputHook[0]  "thruput (bit/sec)"  ETV
vector 376  University.whttpStudents[7].wlan[0].inputHook[0]  packet/sec  ETV
vector 335  University.whttpStudents[3].wlan[0].inputHook[0]  "thruput (bit/sec)"  ETV
vector 336  University.whttpStudents[3].wlan[0].inputHook[0]  packet/sec  ETV
vector 305  University.whttpStudents[0].wlan[0].inputHook[0]  "thruput (bit/sec)"  ETV
vector 306  University.whttpStudents[0].wlan[0].inputHook[0]  packet/sec  ETV
vector 345  University.whttpStudents[4].wlan[0].inputHook[0]  "thruput (bit/sec)"  ETV
vector 346  University.whttpStudents[4].wlan[0].inputHook[0]  packet/sec  ETV
vector 365  University.whttpStudents[6].wlan[0].inputHook[0]  "thruput (bit/sec)"  ETV
vector 366  University.whttpStudents[6].wlan[0].inputHook[0]  packet/sec  ETV
vector 196  University.whttpStudents[6].tcpApp[0]  sentPk:vector(packetBytes)  ETV
attr interpolationmode  none
attr source  sentPk
attr title  "packets sent, vector(packetBytes)"
vector 147  University.whttpStudents[2].tcpApp[0]  rcvdPk:vector(packetBytes)  ETV
attr interpolationmode  none
attr source  rcvdPk
attr title  "packets received, vector(packetBytes)"
vector 149  University.whttpStudents[2].tcpApp[0]  endToEndDelay:vector  ETV
attr interpolationmode  none
attr source  messageAge(rcvdPk)
attr title  "end-to-end delay, vector"
attr unit  s
vector 363  University.whttpStudents[6].wlan[0].outputHook[0]  "thruput (bit/sec)"  ETV
vector 364  University.whttpStudents[6].wlan[0].outputHook[0]  packet/sec  ETV
vector 97  University.Server.tcpApp[1]  rcvdPk:vector(packetBytes)  ETV
attr interpolationmode  none
attr source  rcvdPk
attr title  "packets received, vector(packetBytes)"
vector 99  University.Server.tcpApp[1]  endToEndDelay:vector  ETV
attr interpolationmode  none
attr source  messageAge(rcvdPk)
attr title  "end-to-end delay, vector"
attr unit  s
vector 98  University.Server.tcpApp[1]  sentPk:vector(packetBytes)  ETV
attr interpolationmode  none
attr source  sentPk
attr title  "packets sent, vector(packetBytes)"
vector 235  University.whostFTP.tcpApp[0]  rcvdPk:vector(packetBytes)  ETV
attr interpolationmode  none
attr source  rcvdPk
attr title  "packets received, vector(packetBytes)"
vector 237  University.whostFTP.tcpApp[0]  endToEndDelay:vector  ETV
attr interpolationmode  none
attr source  messageAge(rcvdPk)
attr title  "end-to-end delay, vector"
attr unit  s
vector 238  University.whostFTP.tcpApp[0]  numActiveSessions:vector  ETV
attr interpolationmode  sample-hold
attr source  sum(connect)
attr title  "number of active sessions, vector"
vector 236  University.whostFTP.tcpApp[0]  sentPk:vector(packetBytes)  ETV
attr interpolationmode  none
attr source  sentPk
attr title  "packets sent, vector(packetBytes)"
vector 172  University.whttpStudents[4].tcpApp[0]  sentPk:vector(packetBytes)  ETV
attr interpolationmode  none
attr source  sentPk
attr title  "packets sent, vector(packetBytes)"
vector 343  University.whttpStudents[4].wlan[0].outputHook[0]  "thruput (bit/sec)"  ETV
vector 344  University.whttpStudents[4].wlan[0].outputHook[0]  packet/sec  ETV
vector 195  University.whttpStudents[6].tcpApp[0]  rcvdPk:vector(packetBytes)  ETV
attr interpolationmode  none
attr source  rcvdPk
attr title  "packets received, vector(packetBytes)"
vector 197  University.whttpStudents[6].tcpApp[0]  endToEndDelay:vector  ETV
attr interpolationmode  none
attr source  messageAge(rcvdPk)
attr title  "end-to-end delay, vector"
attr unit  s
vector 135  University.whttpStudents[1].tcpApp[0]  rcvdPk:vector(packetBytes)  ETV
attr interpolationmode  none
attr source  rcvdPk
attr title  "packets received, vector(packetBytes)"
vector 137  University.whttpStudents[1].tcpApp[0]  endToEndDelay:vector  ETV
attr interpolationmode  none
attr source  messageAge(rcvdPk)
attr title  "end-to-end delay, vector"
attr unit  s
vector 186  University.whttpStudents[5].tcpApp[0]  numActiveSessions:vector  ETV
attr interpolationmode  sample-hold
attr source  sum(connect)
attr title  "number of active sessions, vector"
vector 184  University.whttpStudents[5].tcpApp[0]  sentPk:vector(packetBytes)  ETV
attr interpolationmode  none
attr source  sentPk
attr title  "packets sent, vector(packetBytes)"
vector 353  University.whttpStudents[5].wlan[0].outputHook[0]  "thruput (bit/sec)"  ETV
vector 354  University.whttpStudents[5].wlan[0].outputHook[0]  packet/sec  ETV
vector 183  University.whttpStudents[5].tcpApp[0]  rcvdPk:vector(packetBytes)  ETV
attr interpolationmode  none
attr source  rcvdPk
attr title  "packets received, vector(packetBytes)"
vector 185  University.whttpStudents[5].tcpApp[0]  endToEndDelay:vector  ETV
attr interpolationmode  none
attr source  messageAge(rcvdPk)
attr title  "end-to-end delay, vector"
attr unit  s
vector 126  University.whttpStudents[0].tcpApp[0]  numActiveSessions:vector  ETV
attr interpolationmode  sample-hold
attr source  sum(connect)
attr title  "number of active sessions, vector"
vector 124  University.whttpStudents[0].tcpApp[0]  sentPk:vector(packetBytes)  ETV
attr interpolationmode  none
attr source  sentPk
attr title  "packets sent, vector(packetBytes)"
vector 303  University.whttpStudents[0].wlan[0].outputHook[0]  "thruput (bit/sec)"  ETV
vector 304  University.whttpStudents[0].wlan[0].outputHook[0]  packet/sec  ETV
vector 162  University.whttpStudents[3].tcpApp[0]  numActiveSessions:vector  ETV
attr interpolationmode  sample-hold
attr source  sum(connect)
attr title  "number of active sessions, vector"
vector 160  University.whttpStudents[3].tcpApp[0]  sentPk:vector(packetBytes)  ETV
attr interpolationmode  none
attr source  sentPk
attr title  "packets sent, vector(packetBytes)"
vector 333  University.whttpStudents[3].wlan[0].outputHook[0]  "thruput (bit/sec)"  ETV
vector 334  University.whttpStudents[3].wlan[0].outputHook[0]  packet/sec  ETV
vector 159  University.whttpStudents[3].tcpApp[0]  rcvdPk:vector(packetBytes)  ETV
attr interpolationmode  none
attr source  rcvdPk
attr title  "packets received, vector(packetBytes)"
vector 161  University.whttpStudents[3].tcpApp[0]  endToEndDelay:vector  ETV
attr interpolationmode  none
attr source  messageAge(rcvdPk)
attr title  "end-to-end delay, vector"
attr unit  s
vector 210  University.whttpStudents[7].tcpApp[0]  numActiveSessions:vector  ETV
attr interpolationmode  sample-hold
attr source  sum(connect)
attr title  "number of active sessions, vector"
vector 208  University.whttpStudents[7].tcpApp[0]  sentPk:vector(packetBytes)  ETV
attr interpolationmode  none
attr source  sentPk
attr title  "packets sent, vector(packetBytes)"
vector 373  University.whttpStudents[7].wlan[0].outputHook[0]  "thruput (bit/sec)"  ETV
vector 374  University.whttpStudents[7].wlan[0].outputHook[0]  packet/sec  ETV
vector 123  University.whttpStudents[0].tcpApp[0]  rcvdPk:vector(packetBytes)  ETV
attr interpolationmode  none
attr source  rcvdPk
attr title  "packets received, vector(packetBytes)"
vector 125  University.whttpStudents[0].tcpApp[0]  endToEndDelay:vector  ETV
attr interpolationmode  none
attr source  messageAge(rcvdPk)
attr title  "end-to-end delay, vector"
attr unit  s
vector 207  University.whttpStudents[7].tcpApp[0]  rcvdPk:vector(packetBytes)  ETV
attr interpolationmode  none
attr source  rcvdPk
attr title  "packets received, vector(packetBytes)"
vector 209  University.whttpStudents[7].tcpApp[0]  endToEndDelay:vector  ETV
attr interpolationmode  none
attr source  messageAge(rcvdPk)
attr title  "end-to-end delay, vector"
attr unit  s
75	15128 2986521 157119 254822383 5.029841479485 3398.589841479485 84815 1400 1400 118741000 166237400000
76	3001649 2990187 157094 254822149 5.028607574598 3398.588607574598 84840 1400 1400 118776000 166286400000
77	5991836 3772620 157119 254821748 5.029841479485 3398.549841479485 84814 0.01634563302 0.157151455087 1437.0142376835 24.822127479807
94	9764456 40678 194325 254820593 7.384260390359 3398.488991571664 1266 1 1 1266 1266
95	9805134 47220 194325 254820593 7.384260390359 3398.488991571664 1266 509 6118218 1038972189 1.6866550914915e+15
96	9852354 57105 194325 254820593 7.384260390359 3398.488991571664 1266 0.034685908886 0.065208022375 44.340298010783 1.5549955522907
97	9909459 12387 656638 254630267 12.547850350118 3394.998644065867 325 1048576 1048576 340787200 3.573412790272e+14
98	9921846 10437 656638 254630267 12.547850350118 3394.998644065867 325 1 1 325 325
99	9932283 14821 656638 254630267 12.547850350118 3394.998644065867 325 1.751147200367 20.747565989748 3302.2063477964 35678.99577401
123	9947104 6194 4122968 254591953 54.547483212705 3393.291154029733 162 3791 3481745 125739917 1.930551314125e+14
124	9953298 5366 1525429 254581650 29.370957899344 3392.925832653575 162 1 1 162 162
125	9958664 7492 4122968 254591953 54.547483212705 3393.291154029733 162 0.146993311986 25.176525313361 955.19725121631 13049.933378761
126	9966156 10729 1504580 254591953 29.273180038266 3393.291154029733 324 0 1 162 162
135	9976885 6030 1078613 254587738 21.203594501131 3393.169030849285 157 1034 5999741 136058969 2.2448643830918e+14
136	9982915 5209 296312 254150387 8.338379353608 3385.554823438386 157 1 1 157 157
137	9988124 7268 1078613 254587738 21.203594501131 3393.169030849285 157 0.073381395332 32.30291161962 979.42800612908 13140.535553385
138	9995392 10405 294874 254587738 8.265727300054 3393.169030849285 314 0 1 157 157
147	10005797 5606 468857 254809983 10.353762655131 3397.753877179704 147 4944 4560674 117734427 1.9082833093198e+14
148	10011403 4895 193739 254819975 7.349574466962 3398.453026814401 148 1 1 148 148
149	10016298 6788 468857 254809983 10.353762655131 3397.753877179704 147 0.218360089062 31.720651432931 875.91539291343 12001.638713075
150	10023086 9746 192547 254818981 7.276922455824 3398.381959828771 295 0 1 148 148
159	10032832 6046 2199519 254566845 36.234308010218 3392.065080822418 158 2839 3775059 139203184 2.2827300389842e+14
160	10038878 5228 1835332 253335773 33.429262452818 3377.968431740387 158 1 1 158 158
161	10044106 7302 2199519 254566845 36.234308010218 3392.065080822418 158 0.145928245047 25.342891998639 1024.5113330354 13546.661888852
162	10051408 10450 1830462 254566845 33.352866330544 3392.065080822418 316 0 1 158 158
171	10061858 6003 172911 254159036 5.316429635363 3385.826971754998 157 13238 3021049 113415553 1.5890558831832e+14
172	10067861 5163 803386 252575481 15.812975337888 3367.782568681247 156 1 1 156 156
173	10073024 7264 172911 254159036 5.316429635363 3385.826971754998 157 0.293008914012 42.313992746344 901.39611645563 13588.105225701
174	10080288 10520 172911 254159036 5.316429635363 3385.826971754998 313 -1 0 -157 157
183	10090808 5881 1405131 253318701 24.84780635848 3377.460066265251 154 2048 6118218 129822598 2.3394661681503e+14
184	10096689 5088 1195685 253203437 23.634622529199 3376.645401691889 154 1 1 154 154
185	10101777 7119 1405131 253318701 24.84780635848 3377.460066265251 154 0.145822549622 29.350123330335 1049.1986906313 15773.003410899
186	10108896 10171 1173033 253318701 23.533441764345 3377.460066265251 308 0 1 154 154
195	10119067 6706 1006243 254474022 18.496598826642 3389.590358212903 175 509 3504443 141657530 2.2770109458957e+14
196	10125773 5808 447877 252844523 9.880890552094 3372.18742883057 175 1 1 175 175
197	10131581 8124 1006243 254474022 18.496598826642 3389.590358212903 175 0.072294737111 35.413344382073 1141.4671599714 17308.647102761
198	10139705 11611 446540 254474022 9.808238508316 3389.590358212903 350 0 1 175 175
207	10151316 5997 4605686 253989591 58.202881867803 3382.35305372486 156 10234 5293474 133847929 2.2697626569168e+14
208	10157313 5185 2286396 253869703 39.046762885296 3381.65881352061 156 1 1 156 156
209	10162498 7250 4605686 253989591 58.202881867803 3382.35305372486 156 0.290196458529 28.097023992421 1083.7544232203 15214.694746288
210	10169748 10372 2284564 253989591 38.973811287734 3382.35305372486 312 0 1 156 156
219	10180120 3029254 156902 254821845 5.004954647618 3398.564954647618 83644 1400 1400 117101600 163942240000
220	13209374 3075027 156957 254821893 5.013495846465 3398.573495846465 84840 1400 1400 118776000 166286400000
221	16284401 3803515 156902 254821845 5.004954647618 3398.564954647618 83644 0.016326982459 0.193856695542 2057.5567979776 107.55105039281
235	20087916 10759 658115 254634286 12.585658664754 3395.036113868643 325 1 1 325 325
236	20098675 12720 660738 254636125 12.729659770962 3395.180847885646 325 1048576 1048576 340787200 3.573412790272e+14
237	20111395 15137 658115 254634286 12.585658664754 3395.036113868643 325 1.788644003143 20.785276944641 3333.2846094386 36379.79562032
238	20126532 21840 658115 254635260 12.585658664754 3395.108304897677 650 -1 0 -325 325
259	20148372 145530 180197 254817346 5.004564241264 3397.284564241264 3377 286240 11648125.454713 9744796090.3323 5.1048186968838e+16
260	20293902 139435 180197 254817346 5.004564241264 3397.284564241264 3377 27 987.01042655116 1057258.1881015 503144885.37158
261	20433337 148003 180576 254809893 5.013884812819 3396.752334310877 3374 285920 6765049.091081 4070194259.0729 9.4736590489773e+15
262	20581340 143503 180576 254809893 5.013884812819 3396.752334310877 3374 26 937.37572190484 1056304.5457473 500362593.30023
267	20724843 148014 180578 254809895 5.013884812819 3396.752334310877 3374 285920 6765049.091081 4070134506.1447 9.4735164101602e+15
268	20872857 143498 180578 254809895 5.013884812819 3396.752334310877 3374 26 937.37572190484 1056039.6541027 500163253.73034
269	21016355 145520 180195 254817344 5.004564241264 3397.284564241264 3377 286240 11648125.454713 9744735395.7514 5.104773966594e+16
270	21161875 139421 180195 254817344 5.004564241264 3397.284564241264 3377 27 987.01042655116 1056987.2434855 502939754.04803
271	21301296 131970 180644 254814361 5.033607574598 3397.033607574598 3393 285920 13974408 10617498704 6.4626417881611e+16
272	21433266 118792 180644 254814361 5.033607574598 3397.033607574598 3393 26 1178 1130908 603523182
273	21552058 148396 180623 254810310 5.024841479485 3396.763338977543 3373 288012.83557593 6769302.8885804 4069049235.1382 9.5053936954065e+15
274	21700454 144167 180623 254810310 5.024841479485 3396.763338977543 3373 26 932.36780512872 1055803.2074562 500944529.57144
275	21844621 143528 180872 254814598 5.064841479485 3397.064841479485 3357 159826.7278557 322632.42465977 958472934.07482 2.7369493253504e+14
276	21988149 136967 180872 254814598 5.064841479485 3397.064841479485 3357 13.990434861318 28.241633811255 83899.94170823 2097154.2150488
277	22125116 129766 180642 254814359 5.033607574598 3397.033607574598 3393 285600 285600 969040800 2.7675805248e+14
278	22254882 116194 180642 254814359 5.033607574598 3397.033607574598 3393 25 25 84825 2120625
279	22371076 156869 180618 254810312 5.000081680129 3396.763338977543 3338 1325.4476791643 5744619.6739023 3078433292.5523 7.3902915677566e+15
280	22527945 156891 180618 254810312 5.000081680129 3396.763338977543 3338 3.9214428377643 913.37161548595 964636.74145044 449847839.16945
281	22684836 156591 180889 254808186 5.051039046919 3396.741506419019 3331 558.82221551359 13663329.751128 9495679117.017 5.7481533000436e+16
282	22841427 156549 180889 254808186 5.051039046919 3396.741506419019 3331 1.74631942348 1150.8754856672 1029461.5803138 538626085.46409
291	22997976 129766 180632 254814349 5.028607574598 3397.028607574598 3393 285600 285600 969040800 2.7675805248e+14
292	23127742 116194 180632 254814349 5.028607574598 3397.028607574598 3393 25 25 84825 2120625
293	23243936 143528 180884 254814624 5.069841479485 3397.069841479485 3357 159826.7278557 322632.42465977 958472934.07482 2.7369493253504e+14
294	23387464 136967 180884 254814624 5.069841479485 3397.069841479485 3357 13.990434861318 28.241633811255 83899.94170823 2097154.2150488
295	23524431 156556 180653 254809499 5.024078475265 3396.714545847365 3331 558.82221551359 27556628.530006 9936055768.0526 6.5370173232392e+16
296	23680987 156507 180653 254809499 5.024078475265 3396.714545847365 3331 1.74631942348 2317.870575275 1066229.4987406 599251600.64831
297	23837494 156885 180649 254810761 5.024078475265 3396.787335772679 3338 1325.4468475381 5744619.6739023 3078433218.7385 7.3879911753615e+15
298	23994379 156905 180649 254810761 5.024078475265 3396.787335772679 3338 3.9214403773317 913.37161548595 964642.29035263 449837821.75057
303	24151284 42769 1636884 254580269 29.273180038266 3382.755044111569 910 7.0820784271798 198010.05214615 24005113.684138 2257974272366.9
304	24194053 42848 1636884 254580269 29.273180038266 3382.755044111569 910 0.022131495084937 618.78141295671 74997.634117427 22039328.095974
305	24236901 49592 446707 254581646 7.278082492546 3382.755044111569 1055 6.3275871504265 7419035.1957329 898007802.21655 3.3801985647449e+15
306	24286493 49817 446707 254581646 7.278082492546 3382.755044111569 1055 0.028248156921547 618.78141295671 75321.349268628 23649709.206682
313	24336310 44804 412754 254577467 8.265727300054 3391.607947888175 955 8.4071934659642 242070.22461151 25110792.353706 2336763190015.3
314	24381114 44880 412754 254577467 8.265727300054 3391.607947888175 955 0.026272479581138 756.46945191096 78453.694338158 22808796.803825
315	24425994 51841 296308 254578575 7.278082491936 3391.68110887974 1104 4.8541103951902 8973351.0481329 951290665.47577 3.4832512953349e+15
316	24477835 52062 296308 254578575 7.278082491936 3391.68110887974 1104 0.021670135692813 747.77925401108 79766.397015506 24376755.243702
323	24529897 38732 295978 254818984 7.276922455824 3396.942635371407 829 6.5589504550637 250990.42820552 21772556.622143 2072017468247.4
324	24568629 38842 295978 254818984 7.276922455824 3396.942635371407 829 0.020496720172074 784.34508814225 68023.547268573 20224227.430281
325	24607471 46105 295974 254819971 7.278193481332 3396.942635371407 983 6.1032625478897 9412141.057707 820029814.45632 3.1294463673215e+15
326	24653576 46308 295974 254819971 7.278193481332 3396.942635371407 983 0.027246707803079 784.34508814225 68765.212268231 21894979.083247
333	24699884 45643 2011891 254512471 33.352866330544 3386.137646130528 970 3.6435814028742 222444.87072087 26592539.705293 2565855284133.4
334	24745527 45720 2011891 254512471 33.352866330544 3386.137646130528 970 0.011386191883982 695.1402210027 83082.397822079 25044334.016655
335	24791247 52399 446693 254512467 7.278082482712 3385.344351057231 1113 7.1469099544574 9199771.3451291 1002028757.7681 3.8547671952865e+15
336	24843646 52595 446693 254512467 7.278082482712 3385.344351057231 1113 0.031905848010971 766.64761209409 84027.125259978 26965553.099117
343	24896241 39982 923997 254159039 15.741908292178 3381.190072845248 850 17.710452929424 229074.2669101 20605103.953145 1840158447747.9
344	24936223 40158 923997 254159039 15.741908292178 3381.190072845248 850 0.055345165404449 715.85708409405 64373.862499028 17960540.134196
345	24976381 46931 446725 254159033 7.278082511372 3381.190072845248 995 5.8651230695631 8590285.0091286 786257571.69621 2.8135946395481e+15
346	25023312 47145 446725 254159033 7.278082511372 3381.190072845248 995 0.026183585131978 715.85708409405 66013.859985234 19704414.090164
353	25070457 45657 1384018 253197906 23.533441764345 3362.254414890735 971 6.9308198724118 220110.60378464 24813426.489573 2309386067131.5
354	25116114 45759 1384018 253197906 23.533441764345 3362.254414890735 971 0.021658812101287 687.84563682701 77523.672487887 22539744.846934
355	25161873 52359 446675 253203433 7.278082476495 3372.186942775745 1113 4.1923796119448 8254147.6419242 935380394.24817 3.4588299489886e+15
356	25214232 52617 446675 253203433 7.278082476495 3372.186942775745 1113 0.018715980410468 687.84563682701 78468.021176309 24211615.293788
363	25266849 48890 562908 254474025 9.808238508316 3383.452974415414 1040 21.247481359796 254969.78358241 26714591.027038 2498401573630.3
364	25315739 48983 562908 254474025 9.808238508316 3383.452974415414 1040 0.066398379249362 796.78057369503 83462.797574155 24386677.14817
365	25364722 54669 446759 254474019 7.278082489492 3382.57803001128 1161 6.6943734903457 8230556.8482683 1018582287.3464 3.7563639954917e+15
366	25419391 54871 446759 254474019 7.278082489492 3382.57803001128 1161 0.029885595939043 686.68352970442 85441.344698996 26294941.996646
373	25474262 47859 2405981 253861190 38.973811287734 3373.569406639756 1019 6.2870676302327 223477.7010563 25682051.078649 2359197123157.6
374	25522121 47903 2405981 253861190 38.973811287734 3373.569406639756 1019 0.019647086344477 698.36781580094 80238.144986983 23026717.226092
375	25570024 54387 446681 253869699 7.278082477049 3373.569406639756 1158 5.3694901828597 9060104.2286739 977991281.06468 3.5317299606465e+15
376	25624411 54569 446681 253869699 7.278082477049 3373.569406639756 1158 0.023970938316338 756.01670800016 82066.338299556 24739688.110632
383	25678980 129766 180511 254814221 5.013495846465 3397.013495846465 3393 285600 285824 969047072 2.7676163645133e+14
384	25808746 116194 180511 254814221 5.013495846465 3397.013495846465 3393 25 26 84853 2122053
385	25924940 142735 180248 254801102 5.004954647618 3396.684954647618 3351 146214.48998631 330096.64592266 943934483.74012 2.6671445704758e+14
386	26067675 135939 180248 254801102 5.004954647618 3396.684954647618 3351 12.798887428773 29.703915684378 82882.087244829 2056396.132669
393	26203614 147688 190144 254797328 6.00763301585 3396.606033740987 3140 234.66666666667 7040300.1334562 3405232044.5872 1.2035436742792e+16
394	26351302 147667 190144 254797328 6.00763301585 3396.606033740987 3140 0.14032911633895 586.69167778802 285643.15688188 84510175.992876
395	26498969 147936 181000 254807382 5.061146219515 3396.678823666301 3145 35.006319258345 172539.22383538 72844581.621401 4673317341456.1
396	26646905 147965 181000 254807382 5.061146219515 3396.678823666301 3145 0.15627821097476 539.18507448557 227640.12024808 45618635.126132
403	26794870 145406 180204 254816366 5.004680611264 3397.164742022206 3377 290224 11788075.738298 9909034601.1077 5.2535528324699e+16
404	26940276 139240 180204 254816366 5.004680611264 3397.164742022206 3377 27 987.01042655116 1057283.6132246 503279541.30863
405	27079516 148002 180542 254811245 5.013769882819 3396.813769882819 3374 286112 7384409.5734921 4210211570.3129 9.7976386737694e+15