version 2
run General-9-20160818-09:40:40-13547
attr configname General
attr datetime 20160818-09:40:40
attr experiment General
attr inifile omnetpp.ini
attr iterationvars ""
attr iterationvars2 $repetition=9
attr measurement ""
attr network University
attr processid 13547
attr repetition 9
attr replication #9
attr resultdir results
attr runnumber 9
attr seedset 9

vector 168  University.whostFTP.tcpApp[0]  numActiveSessions:vector  ETV
attr interpolationmode  sample-hold
attr source  sum(connect)
attr title  "number of active sessions, vector"
vector 150  University.whostVideoConf.udpApp[0]  sentPk:vector(packetBytes)  ETV
attr interpolationmode  none
attr source  sentPk
attr title  "packets sent, vector(packetBytes)"
vector 83  University.profLaptop.udpApp[0]  sentPk:vector(packetBytes)  ETV
attr interpolationmode  none
attr source  sentPk
attr title  "packets sent, vector(packetBytes)"
vector 118  University.CCTV.udpApp[0]  reqStreamBytes:vector  ETV
attr interpolationmode  none
attr title  "requested stream bytes, vector"
vector 119  University.CCTV.udpApp[0]  sentPk:vector(packetBytes)  ETV
attr interpolationmode  none
attr source  sentPk
attr title  "packets sent, vector(packetBytes)"
vector 64  University.ccTVMonitoringHost.udpApp[0]  rcvdPk:vector(packetBytes)  ETV
attr interpolationmode  none
attr source  rcvdPk
attr title  "packets received, vector(packetBytes)"
vector 65  University.ccTVMonitoringHost.udpApp[0]  endToEndDelay:vector  ETV
attr interpolationmode  none
attr source  messageAge(rcvdPk)
attr title  "end-to-end delay, vector"
attr unit  s
vector 149  University.whostVideoConf.udpApp[0]  rcvdPk:vector(packetBytes)  ETV
attr interpolationmode  none
attr source  rcvdPk
attr title  "packets received, vector(packetBytes)"
vector 151  University.whostVideoConf.udpApp[0]  rcvdPkLifetime:vector  ETV
attr interpolationmode  none
attr source  messageAge(rcvdPk)
attr title  "received packet lifetime, vector"
attr unit  s
vector 82  University.profLaptop.udpApp[0]  rcvdPk:vector(packetBytes)  ETV
attr interpolationmode  none
attr source  rcvdPk
attr title  "packets received, vector(packetBytes)"
vector 84  University.profLaptop.udpApp[0]  rcvdPkLifetime:vector  ETV
attr interpolationmode  none
attr source  messageAge(rcvdPk)
attr title  "received packet lifetime, vector"
attr unit  s
vector 166  University.whostFTP.tcpApp[0]  sentPk:vector(packetBytes)  ETV
attr interpolationmode  none
attr source  sentPk
attr title  "packets sent, vector(packetBytes)"
vector 140  University.whttpStudents[0].tcpApp[0]  numActiveSessions:vector  ETV
attr interpolationmode  sample-hold
attr source  sum(connect)
attr title  "number of active sessions, vector"
vector 138  University.whttpStudents[0].tcpApp[0]  sentPk:vector(packetBytes)  ETV
attr interpolationmode  none
attr source  sentPk
attr title  "packets sent, vector(packetBytes)"
vector 101  University.Server.tcpApp[0]  rcvdPk:vector(packetBytes)  ETV
attr interpolationmode  none
attr source  rcvdPk
attr title  "packets received, vector(packetBytes)"
vector 103  University.Server.tcpApp[0]  endToEndDelay:vector  ETV
attr interpolationmode  none
attr source  messageAge(rcvdPk)
attr title  "end-to-end delay, vector"
attr unit  s
vector 102  University.Server.tcpApp[0]  sentPk:vector(packetBytes)  ETV
attr interpolationmode  none
attr source  sentPk
attr title  "packets sent, vector(packetBytes)"
vector 104  University.Server.tcpApp[1]  rcvdPk:vector(packetBytes)  ETV
attr interpolationmode  none
attr source  rcvdPk
attr title  "packets received, vector(packetBytes)"
vector 106  University.Server.tcpApp[1]  endToEndDelay:vector  ETV
attr interpolationmode  none
attr source  messageAge(rcvdPk)
attr title  "end-to-end delay, vector"
attr unit  s
vector 105  University.Server.tcpApp[1]  sentPk:vector(packetBytes)  ETV
attr interpolationmode  none
attr source  sentPk
attr title  "packets sent, vector(packetBytes)"
vector 165  University.whostFTP.tcpApp[0]  rcvdPk:vector(packetBytes)  ETV
attr interpolationmode  none
attr source  rcvdPk
attr title  "packets received, vector(packetBytes)"
vector 167  University.whostFTP.tcpApp[0]  endToEndDelay:vector  ETV
attr interpolationmode  none
attr source  messageAge(rcvdPk)
attr title  "end-to-end delay, vector"
attr unit  s
vector 137  University.whttpStudents[0].tcpApp[0]  rcvdPk:vector(packetBytes)  ETV
attr interpolationmode  none
attr source  rcvdPk
attr title  "packets received, vector(packetBytes)"
vector 139  University.whttpStudents[0].tcpApp[0]  endToEndDelay:vector  ETV
attr interpolationmode  none
attr source  messageAge(rcvdPk)
attr title  "end-to-end delay, vector"
attr unit  s
64	271	0.047195877145	10240
64	415	0.087195877145	10240
64	579	0.127195877145	10240
64	770	0.167195877145	10240
64	961	0.207195877145	10240
64	1172	0.247195877145	10240
64	1312	0.287195877145	10240
64	1474	0.327195877145	10240
64	1614	0.367195877145	10240
64	1755	0.407195877145	10240
64	2119	0.447195877145	10240
64	2462	0.487195877145	10240
64	2782	0.527195877145	10240
64	2966	0.567195877145	10240
64	3106	0.607195877145	10240
64	3266	0.647195877145	10240
64	3406	0.687195877145	10240
64	3566	0.727195877145	10240
64	3706	0.767195877145	10240
64	3846	0.807195877145	10240
64	4006	0.847195877145	10240
64	4146	0.887195877145	10240
64	4306	0.927195877145	10240
64	4446	0.967195877145	10240
64	5209	1.007195877145	10240
64	7531	1.053948806815	10240
64	7877	1.087195877145	10240
64	8552	1.127195877145	10240
64	9386	1.167195877145	10240
64	10591	1.207195877145	10240
64	12469	1.247195877145	10240
64	15556	1.288346900232	10240
64	19687	1.330834132664	10240
64	23918	1.373912132636	10240
64	28004	1.415985465942	10240
64	31928	1.456049465916	10240
64	36231	1.50113679922	10240
64	38237	1.53718213253	10240
64	39676	1.568044988207	10240
64	40679	1.607195877145	10240
64	41469	1.647195877145	10240
64	42029	1.687195877145	10240
64	42490	1.727195877145	10240
64	42932	1.767195877145	10240
64	43373	1.807195877145	10240
64	43835	1.847195877145	10240
64	44276	1.887195877145	10240
64	44737	1.927195877145	10240
64	45179	1.967195877145	10240
64	45620	2.007195877145	10240
64	46081	2.047195877145	10240
64	46523	2.087195877145	10240
64	46986	2.127195877145	10240
64	47579	2.167195877145	10240
64	48199	2.207195877145	10240
64	48855	2.247195877145	10240
64	49497	2.287195877145	10240
64	50362	2.327195877145	10240
64	51609	2.367195877145	10240
64	53247	2.407195877145	10240
64	55537	2.447195877145	10240
64	59600	2.487195877145	10240
64	63905	2.527227210478	10240
64	68309	2.567227210478	10240
64	72693	2.607227210478	10240
64	77064	2.647227210478	10240
64	81419	2.687227210478	10240
64	85886	2.727227210478	10240
64	89923	2.767258543811	10240
64	93763	2.807227210478	10240
64	97565	2.847195877145	10240
64	101184	2.887227210478	10240
64	103561	2.927195877145	10240
64	105809	2.967195877145	10240
64	107713	3.007195877145	10240
64	109355	3.047195877145	10240
64	110661	3.087195877145	10240
64	111797	3.127195877145	10240
64	112671	3.167195877145	10240
64	113338	3.207195877145	10240
64	114009	3.247195877145	10240
64	114659	3.287195877145	10240
64	115329	3.327195877145	10240
64	115980	3.367195877145	10240
64	116631	3.407195877145	10240
64	117303	3.447195877145	10240
64	117954	3.487195877145	10240
64	118626	3.527195877145	10240
64	119277	3.567195877145	10240
64	119928	3.607195877145	10240
64	120599	3.647195877145	10240
64	121249	3.687195877145	10240
64	121920	3.727195877145	10240
64	122570	3.767195877145	10240
64	123220	3.807195877145	10240
64	123890	3.847195877145	10240
64	124542	3.887195877145	10240
64	125210	3.927195877145	10240
64	125860	3.967195877145	10240
64	126510	4.007195877145	10240
64	127180	4.047195877145	10240
64	127831	4.087195877145	10240
64	128502	4.127195877145	10240
64	129153	4.167195877145	10240
64	129804	4.207195877145	10240
64	130474	4.247195877145	10240
64	131124	4.287195877145	10240
64	131795	4.327195877145	10240
64	132446	4.367195877145	10240
64	133097	4.407195877145	10240
64	133766	4.447195877145	10240
64	134418	4.487195877145	10240
64	135089	4.527195877145	10240
64	135740	4.567195877145	10240
64	136389	4.607195877145	10240
64	137061	4.647195877145	10240
64	137713	4.687195877145	10240
64	138385	4.727195877145	10240
64	139037	4.767195877145	10240
64	139688	4.807195877145	10240
64	140262	4.847195877145	10240
64	140852	4.887195877145	10240
64	141710	4.927195877145	10240
64	142982	4.967195877145	10240
64	144530	5.007195877145	10240
64	147023	5.047195877145	10240
64	151649	5.096368718109	10240
64	155872	5.139478051414	10240
64	159831	5.179573384721	10240
64	164574	5.227706051356	10240
64	169000	5.271788717994	10240
64	172621	5.314898051299	10240
64	174724	5.351172051275	10240
64	175637	5.367195877145	10240
64	176413	5.407195877145	10240
64	176929	5.447195877145	10240
64	177509	5.487195877145	10240
64	178164	5.527195877145	10240
64	179122	5.567195877145	10240
64	180598	5.607195877145	10240
64	182375	5.647195877145	10240
64	185297	5.687291210452	10240
64	189567	5.731265400081	10240
64	193876	5.774374733386	10240
64	198333	5.819493400023	10240
64	202429	5.860562066663	10240
64	206466	5.902666733302	10240
64	209531	5.947785399939	10240
64	210910	5.967195877145	10240
64	211999	6.007195877145	10240
64	212790	6.047195877145	10240
64	213471	6.087195877145	10240
64	214048	6.127195877145	10240
64	214594	6.167195877145	10240
64	215139	6.207195877145	10240
64	215704	6.247195877145	10240
64	216250	6.287195877145	10240
64	216816	6.327195877145	10240
64	217362	6.367195877145	10240
64	217908	6.407195877145	10240
64	218473	6.447195877145	10240
64	219019	6.487195877145	10240
64	219584	6.527195877145	10240
64	220129	6.567195877145	10240
64	220675	6.607195877145	10240
64	221241	6.647195877145	10240
64	221786	6.687195877145	10240
64	222354	6.727195877145	10240
64	222900	6.767195877145	10240
64	223446	6.807195877145	10240
64	224012	6.847195877145	10240
64	224558	6.887195877145	10240
64	225122	6.927195877145	10240
64	225668	6.967195877145	10240
64	226213	7.007195877145	10240
64	226778	7.047195877145	10240
64	227323	7.087195877145	10240
64	227891	7.127195877145	10240
64	228436	7.167195877145	10240
64	228982	7.207195877145	10240
64	229547	7.247195877145	10240
64	230092	7.287195877145	10240
64	230658	7.327195877145	10240
64	231204	7.367195877145	10240
64	231749	7.407195877145	10240
64	232315	7.447195877145	10240
64	232860	7.487195877145	10240
64	233426	7.527195877145	10240
64	233971	7.567195877145	10240
64	234517	7.607195877145	10240
64	235082	7.647195877145	10240
64	235627	7.687195877145	10240
64	236192	7.727195877145	10240
64	236737	7.767195877145	10240
64	237283	7.807195877145	10240
64	237848	7.847195877145	10240
64	238393	7.887195877145	10240
64	238959	7.927195877145	10240
64	239505	7.967195877145	10240
64	240096	8.007195877145	10240
64	240724	8.047195877145	10240
64	241175	8.087195877145	10240
64	241638	8.127195877145	10240
64	242079	8.167195877145	10240
64	242521	8.207195877145	10240
64	242983	8.247195877145	10240
64	243424	8.287195877145	10240
64	243885	8.327195877145	10240
64	244326	8.367195877145	10240
64	244768	8.407195877145	10240
64	245230	8.447195877145	10240
64	245672	8.487195877145	10240
64	246134	8.527195877145	10240
64	246576	8.567195877145	10240
64	247017	8.607195877145	10240
64	247479	8.647195877145	10240
64	247920	8.687195877145	10240
65	271	0.047195877145	0.017080129996
65	415	0.087195877145	0.017080129996
65	579	0.127195877145	0.017080129996
65	770	0.167195877145	0.017080129996
65	961	0.207195877145	0.017080129996
65	1172	0.247195877145	0.017080129996
65	1312	0.287195877145	0.017080129996
65	1474	0.327195877145	0.017080129996
65	1614	0.367195877145	0.017080129996
65	1755	0.407195877145	0.017080129996
65	2119	0.447195877145	0.017080129996
65	2462	0.487195877145	0.017080129996
65	2782	0.527195877145	0.017080129996
65	2966	0.567195877145	0.017080129996
65	3106	0.607195877145	0.017080129996
65	3266	0.647195877145	0.017080129996
65	3406	0.687195877145	0.017080129996
65	3566	0.727195877145	0.017080129996
65	3706	0.767195877145	0.017080129996
65	3846	0.807195877145	0.017080129996
65	4006	0.847195877145	0.017080129996
65	4146	0.887195877145	0.017080129996
65	4306	0.927195877145	0.017080129996
65	4446	0.967195877145	0.017080129996
65	5209	1.007195877145	0.017080129996
65	7531	1.053948806815	0.023833059666
65	7877	1.087195877145	0.017080129996
65	8552	1.127195877145	0.017080129996
65	9386	1.167195877145	0.017080129996
65	10591	1.207195877145	0.017080129996
65	12469	1.247195877145	0.017080129996
65	15556	1.288346900232	0.018231153083
65	19687	1.330834132664	0.020718385515
65	23918	1.373912132636	0.023796385487
65	28004	1.415985465942	0.025869718793
65	31928	1.456049465916	0.025933718767
65	36231	1.50113679922	0.031021052071
65	38237	1.53718213253	0.027066385381
65	39676	1.568044988207	0.017929241058
65	40679	1.607195877145	0.017080129996
65	41469	1.647195877145	0.017080129996
65	42029	1.687195877145	0.017080129996
65	42490	1.727195877145	0.017080129996
65	42932	1.767195877145	0.017080129996
65	43373	1.807195877145	0.017080129996
65	43835	1.847195877145	0.017080129996
65	44276	1.887195877145	0.017080129996
65	44737	1.927195877145	0.017080129996
65	45179	1.967195877145	0.017080129996
65	45620	2.007195877145	0.017080129996
65	46081	2.047195877145	0.017080129996
65	46523	2.087195877145	0.017080129996
65	46986	2.127195877145	0.017080129996
65	47579	2.167195877145	0.017080129996
65	48199	2.207195877145	0.017080129996
65	48855	2.247195877145	0.017080129996
65	49497	2.287195877145	0.017080129996
65	50362	2.327195877145	0.017080129996
65	51609	2.367195877145	0.017080129996
65	53247	2.407195877145	0.017080129996
65	55537	2.447195877145	0.017080129996
65	59600	2.487195877145	0.017080129996
65	63905	2.527227210478	0.017111463329
65	68309	2.567227210478	0.017111463329
65	72693	2.607227210478	0.017111463329
65	77064	2.647227210478	0.017111463329
65	81419	2.687227210478	0.017111463329
65	85886	2.727227210478	0.017111463329
65	89923	2.767258543811	0.017142796662
65	93763	2.807227210478	0.017111463329
65	97565	2.847195877145	0.017080129996
65	101184	2.887227210478	0.017111463329
65	103561	2.927195877145	0.017080129996
65	105809	2.967195877145	0.017080129996
65	107713	3.007195877145	0.017080129996
65	109355	3.047195877145	0.017080129996
65	110661	3.087195877145	0.017080129996
65	111797	3.127195877145	0.017080129996
65	112671	3.167195877145	0.017080129996
65	113338	3.207195877145	0.017080129996
65	114009	3.247195877145	0.017080129996
65	114659	3.287195877145	0.017080129996
65	115329	3.327195877145	0.017080129996
65	115980	3.367195877145	0.017080129996
65	116631	3.407195877145	0.017080129996
65	117303	3.447195877145	0.017080129996
65	117954	3.487195877145	0.017080129996
65	118626	3.527195877145	0.017080129996
65	119277	3.567195877145	0.017080129996
65	119928	3.607195877145	0.017080129996
65	120599	3.647195877145	0.017080129996
65	121249	3.687195877145	0.017080129996
65	121920	3.727195877145	0.017080129996
65	122570	3.767195877145	0.017080129996
65	123220	3.807195877145	0.017080129996
65	123890	3.847195877145	0.017080129996
65	124542	3.887195877145	0.017080129996
65	125210	3.927195877145	0.017080129996
65	125860	3.967195877145	0.017080129996
65	126510	4.007195877145	0.017080129996
65	127180	4.047195877145	0.017080129996
65	127831	4.087195877145	0.017080129996
65	128502	4.127195877145	0.017080129996
65	129153	4.167195877145	0.017080129996
65	129804	4.207195877145	0.017080129996
65	130474	4.247195877145	0.017080129996
65	131124	4.287195877145	0.017080129996
65	131795	4.327195877145	0.017080129996
65	132446	4.367195877145	0.017080129996
65	133097	4.407195877145	0.017080129996
65	133766	4.447195877145	0.017080129996
65	134418	4.487195877145	0.017080129996
65	135089	4.527195877145	0.017080129996
65	135740	4.567195877145	0.017080129996
65	136389	4.607195877145	0.017080129996
65	137061	4.647195877145	0.017080129996
65	137713	4.687195877145	0.017080129996
65	138385	4.727195877145	0.017080129996
65	139037	4.767195877145	0.017080129996
65	139688	4.807195877145	0.017080129996
65	140262	4.847195877145	0.017080129996
65	140852	4.887195877145	0.017080129996
65	141710	4.927195877145	0.017080129996
65	142982	4.967195877145	0.017080129996
65	144530	5.007195877145	0.017080129996
65	147023	5.047195877145	0.017080129996
65	151649	5.096368718109	0.02625297096
65	155872	5.139478051414	0.029362304265
65	159831	5.179573384721	0.029457637572
65	164574	5.227706051356	0.037590304207
65	169000	5.271788717994	0.041672970845
65	172621	5.314898051299	0.04478230415
65	174724	5.351172051275	0.041056304126
65	175637	5.367195877145	0.017080129996
65	176413	5.407195877145	0.017080129996
65	176929	5.447195877145	0.017080129996
65	177509	5.487195877145	0.017080129996
65	178164	5.527195877145	0.017080129996
65	179122	5.567195877145	0.017080129996
65	180598	5.607195877145	0.017080129996
65	182375	5.647195877145	0.017080129996
65	185297	5.687291210452	0.017175463303
65	189567	5.731265400081	0.021149652932
65	193876	5.774374733386	0.024258986237
65	198333	5.819493400023	0.029377652874
65	202429	5.860562066663	0.030446319514
65	206466	5.902666733302	0.032550986153
65	209531	5.947785399939	0.03766965279
65	210910	5.967195877145	0.017080129996
65	211999	6.007195877145	0.017080129996
65	212790	6.047195877145	0.017080129996
65	213471	6.087195877145	0.017080129996
65	214048	6.127195877145	0.017080129996
65	214594	6.167195877145	0.017080129996
65	215139	6.207195877145	0.017080129996
65	215704	6.247195877145	0.017080129996
65	216250	6.287195877145	0.017080129996
65	216816	6.327195877145	0.017080129996
65	217362	6.367195877145	0.017080129996
65	217908	6.407195877145	0.017080129996
65	218473	6.447195877145	0.017080129996
65	219019	6.487195877145	0.017080129996
65	219584	6.527195877145	0.017080129996
65	220129	6.567195877145	0.017080129996
65	220675	6.607195877145	0.017080129996
65	221241	6.647195877145	0.017080129996
65	221786	6.687195877145	0.017080129996
65	222354	6.727195877145	0.017080129996
65	222900	6.767195877145	0.017080129996
65	223446	6.807195877145	0.017080129996
65	224012	6.847195877145	0.017080129996
65	224558	6.887195877145	0.017080129996
65	225122	6.927195877145	0.017080129996
65	225668	6.967195877145	0.017080129996
65	226213	7.007195877145	0.017080129996
65	226778	7.047195877145	0.017080129996
65	227323	7.087195877145	0.017080129996
65	227891	7.127195877145	0.017080129996
65	228436	7.167195877145	0.017080129996
65	228982	7.207195877145	0.017080129996
65	229547	7.247195877145	0.017080129996
65	230092	7.287195877145	0.017080129996
65	230658	7.327195877145	0.017080129996
65	231204	7.367195877145	0.017080129996
65	231749	7.407195877145	0.017080129996
65	232315	7.447195877145	0.017080129996
65	232860	7.487195877145	0.017080129996
65	233426	7.527195877145	0.017080129996
65	233971	7.567195877145	0.017080129996
65	234517	7.607195877145	0.017080129996
65	235082	7.647195877145	0.017080129996
65	235627	7.687195877145	0.017080129996
65	236192	7.727195877145	0.017080129996
65	236737	7.767195877145	0.017080129996
65	237283	7.807195877145	0.017080129996
65	237848	7.847195877145	0.017080129996
65	238393	7.887195877145	0.017080129996
65	238959	7.927195877145	0.017080129996
65	239505	7.967195877145	0.017080129996
65	240096	8.007195877145	0.017080129996
65	240724	8.047195877145	0.017080129996
65	241175	8.087195877145	0.017080129996
65	241638	8.127195877145	0.017080129996
65	242079	8.167195877145	0.017080129996
65	242521	8.207195877145	0.017080129996
65	242983	8.247195877145	0.017080129996
65	243424	8.287195877145	0.017080129996
65	243885	8.327195877145	0.017080129996
65	244326	8.367195877145	0.017080129996
65	244768	8.407195877145	0.017080129996
65	245230	8.447195877145	0.017080129996
65	245672	8.487195877145	0.017080129996
65	246134	8.527195877145	0.017080129996
65	246576	8.567195877145	0.017080129996
65	247017	8.607195877145	0.017080129996
65	247479	8.647195877145	0.017080129996
65	247920	8.687195877145	0.017080129996
82	7137	1.036684140163	1400
82	7245	1.037640806829	1400
82	7305	1.038597473495	1400
82	7316	1.039554140161	1400
82	7327	1.040510806827	1400
82	7382	1.041467473493	1400
82	7393	1.042424140159	1400
82	7404	1.043380806825	1400
82	7415	1.044337473491	1400
82	7426	1.045294140157	1400
82	7437	1.046250806823	1400
82	7450	1.047207473489	1400
82	7463	1.048164140155	1400
82	7476	1.049120806821	1400
82	7489	1.050077473487	1400
82	7500	1.051034140153	1400
82	7546	1.056009473483	1400
82	7570	1.059905473481	1400
82	7585	1.060862140147	1400
82	7594	1.061818806813	1400
82	7608	1.062775473479	1400
82	7621	1.063732140145	1400
82	7637	1.064688806811	1400
82	7645	1.065645473477	1400
82	7650	1.066602140143	1400
82	7654	1.067558806809	1400
82	7658	1.069551473474	1400
82	8016	1.096878503939	1400
82	8588	1.136878503939	1400
82	9473	1.17785632541	1400
82	10936	1.217419391093	1400
82	13956	1.271318900246	1400
82	16966	1.302340900226	1400
82	21527	1.349851465988	1400
82	25674	1.390920132628	1400
82	29832	1.4339981326	1400
82	33726	1.474062132574	1400
82	37421	1.519149465878	1400
82	38497	1.543138799196	1400
82	39778	1.580029654869	1400
82	40780	1.619180543807	1400
82	41526	1.657171210475	1400
82	42062	1.696878503939	1400
82	42523	1.736878503939	1400
82	42965	1.776878503939	1400
82	43426	1.816878503939	1400
82	43868	1.856878503939	1400
82	44309	1.896878503939	1400
82	44770	1.936878503939	1400
82	45212	1.976878503939	1400
82	45673	2.016878503939	1400
82	46114	2.056878503939	1400
82	46556	2.096878503939	1400
82	47019	2.136878503939	1400
82	47624	2.176878503939	1400
82	48279	2.216878503939	1400
82	48904	2.256878503939	1400
82	49562	2.296878503939	1400
82	50459	2.336878503939	1400
82	51770	2.376959439862	1400
82	53909	2.417040439862	1400
82	56632	2.457470864681	1400
82	60680	2.496905439862	1400
82	65473	2.541562569746	1400
82	69422	2.577040045846	1400
82	73903	2.618542056347	1400
82	78145	2.65699873831	1400
82	82592	2.697327077348	1400
82	87010	2.737822198496	1400
82	90969	2.77805690144	1400
82	94726	2.817072043357	1400
82	98547	2.85703501809	1400
82	102046	2.899558240869	1400
82	104291	2.937070730663	1400
82	106231	2.976911029248	1400
82	107948	3.01739630468	1400
82	109506	3.060750451851	1400
82	110782	3.098813270159	1400
82	111894	3.137307432116	1400
82	112744	3.176878503939	1400
82	113415	3.216878503939	1400
82	114066	3.256878503939	1400
82	114716	3.296878503939	1400
82	115386	3.336878503939	1400
82	116037	3.376878503939	1400
82	116708	3.416878503939	1400
82	117360	3.456878503939	1400
82	118011	3.496878503939	1400
82	118683	3.536878503939	1400
82	119334	3.576878503939	1400
82	120005	3.616878503939	1400
82	120656	3.656878503939	1400
82	121306	3.696878503939	1400
82	121977	3.736878503939	1400
82	122627	3.776878503939	1400
82	123297	3.816878503939	1400
82	123947	3.856878503939	1400
82	124599	3.896878503939	1400
82	125267	3.936878503939	1400
82	125917	3.976878503939	1400
82	126587	4.016878503939	1400
82	127237	4.056878503939	1400
82	127888	4.096878503939	1400
82	128559	4.136878503939	1400
82	129210	4.176878503939	1400
82	129881	4.216878503939	1400
82	130531	4.256878503939	1400
82	131181	4.296878503939	1400
82	131852	4.336878503939	1400
82	132503	4.376878503939	1400
82	133174	4.416878503939	1400
82	133823	4.456878503939	1400
82	134475	4.496878503939	1400
82	135146	4.536878503939	1400
82	135797	4.576878503939	1400
82	136466	4.616878503939	1400
82	137118	4.656878503939	1400
82	137770	4.696878503939	1400
82	138442	4.736878503939	1400
82	139094	4.776878503939	1400
82	139761	4.816878503939	1400
82	140307	4.856878503939	1400
82	140909	4.896878503939	1400
82	141803	4.93921187714	1400
82	143148	4.980216543806	1400
82	145425	5.024203877137	1400
82	148324	5.061189877139	1400
82	153215	5.111367384769	1400
82	157431	5.154476718074	1400
82	161598	5.196581384713	1400
82	165934	5.240695384684	1400
82	170127	5.283773384656	1400
82	173741	5.330901384625	1400
82	175070	5.357160051274	1400
82	175908	5.376878503939	1400
82	176550	5.416878503939	1400
82	177046	5.457156075066	1400
82	177554	5.496878503939	1400
82	178233	5.537219051224	1400
82	179245	5.580216543806	1400
82	180850	5.622225877138	1400
82	183578	5.663199210471	1400
82	186727	5.701285210446	1400
82	191493	5.750282733405	1400
82	195899	5.794396733376	1400
82	200164	5.836501400015	1400
82	203729	5.873582733324	1400
82	207811	5.916660733296	1400
82	209899	5.953742066605	1400
82	211033	5.977628922286	1400
82	212174	6.018097416144	1400
82	212922	6.058054513875	1400
82	213515	6.096878503939	1400
82	214093	6.136878503939	1400
82	214639	6.176878503939	1400
82	215204	6.216878503939	1400
82	215749	6.256878503939	1400
82	216295	6.296878503939	1400
82	216861	6.336878503939	1400
82	217407	6.376878503939	1400
82	217973	6.416878503939	1400
82	218518	6.456878503939	1400
82	219064	6.496878503939	1400
82	219629	6.536878503939	1400
82	220174	6.576878503939	1400
82	220740	6.616878503939	1400
82	221286	6.656878503939	1400
82	221831	6.696878503939	1400
82	222399	6.736878503939	1400
82	222945	6.776878503939	1400
82	223511	6.816878503939	1400
82	224057	6.856878503939	1400
82	224603	6.896878503939	1400
82	225167	6.936878503939	1400
82	225713	6.976878503939	1400
82	226278	7.016878503939	1400
82	226823	7.056878503939	1400
82	227368	7.096878503939	1400
82	227936	7.136878503939	1400
82	228481	7.176878503939	1400
82	229047	7.216878503939	1400
82	229592	7.256878503939	1400
82	230137	7.296878503939	1400
82	230703	7.336878503939	1400
82	231249	7.376878503939	1400
82	231814	7.416878503939	1400
82	232360	7.456878503939	1400
82	232905	7.496878503939	1400
82	233471	7.536878503939	1400
82	234016	7.576878503939	1400
82	234582	7.616878503939	1400
82	235127	7.656878503939	1400
82	235672	7.696878503939	1400
82	236237	7.736878503939	1400
82	236782	7.776878503939	1400
82	237348	7.816878503939	1400
82	237893	7.856878503939	1400
82	238438	7.896878503939	1400
82	239004	7.936878503939	1400
82	239550	7.976878503939	1400
82	240175	8.016878503939	1400
82	240766	8.056878503939	1400
82	241208	8.096878503939	1400
82	241671	8.136878503939	1400
82	242112	8.176878503939	1400
82	242574	8.216878503939	1400
82	243016	8.256878503939	1400
82	243457	8.296878503939	1400
82	243918	8.336878503939	1400
82	244359	8.376878503939	1400
82	244821	8.416878503939	1400
82	245263	8.456878503939	1400
82	245705	8.496878503939	1400
82	246167	8.536878503939	1400
82	246609	8.576878503939	1400
82	247070	8.616878503939	1400
82	247512	8.656878503939	1400
82	247953	8.696878503939	1400
83	60	0.019965214626	1400
83	272	0.059965214626	1400
83	416	0.099965214626	1400
83	580	0.139965214626	1400
83	822	0.179965214626	1400
83	982	0.219965214626	1400
83	1173	0.259965214626	1400
83	1314	0.299965214626	1400
83	1475	0.339965214626	1400
83	1616	0.379965214626	1400
83	1776	0.419965214626	1400
83	2120	0.459965214626	1400
83	2463	0.499965214626	1400
83	2827	0.539965214626	1400
83	2967	0.579965214626	1400
83	3127	0.619965214626	1400
83	3267	0.659965214626	1400
83	3407	0.699965214626	1400
83	3567	0.739965214626	1400
83	3707	0.779965214626	1400
83	3867	0.819965214626	1400
83	4007	0.859965214626	1400
83	4147	0.899965214626	1400
83	4307	0.939965214626	1400
83	4447	0.979965214626	1400
83	5897	1.019965214626	1400
83	7571	1.059965214626	1400
83	8029	1.099965214626	1400
83	8613	1.139965214626	1400
83	9498	1.179965214626	1400
83	10973	1.219965214626	1400
83	13480	1.259965214626	1400
83	16729	1.299965214626	1400
83	20577	1.339965214626	1400
83	24538	1.379965214626	1400
83	28402	1.419965214626	1400
83	32301	1.459965214626	1400
83	36143	1.499965214626	1400
83	38344	1.539965214626	1400
83	39769	1.579965214626	1400
83	40781	1.619965214626	1400
83	41527	1.659965214626	1400
83	42063	1.699965214626	1400
83	42524	1.739965214626	1400
83	42966	1.779965214626	1400
83	43427	1.819965214626	1400
83	43869	1.859965214626	1400
83	44310	1.899965214626	1400
83	44771	1.939965214626	1400
83	45213	1.979965214626	1400
83	45674	2.019965214626	1400
83	46115	2.059965214626	1400
83	46557	2.099965214626	1400
83	47020	2.139965214626	1400
83	47625	2.179965214626	1400
83	48280	2.219965214626	1400
83	48905	2.259965214626	1400
83	49563	2.299965214626	1400
83	50460	2.339965214626	1400
83	51771	2.379965214626	1400
83	53966	2.419965214626	1400
83	56831	2.459965214626	1400
83	60993	2.499965214626	1400
83	65308	2.539965214626	1400
83	69724	2.579965214626	1400
83	74061	2.619965214626	1400
83	78437	2.659965214626	1400
83	82865	2.699965214626	1400
83	87223	2.739965214626	1400
83	91141	2.779965214626	1400
83	94991	2.819965214626	1400
83	98795	2.859965214626	1400
83	102047	2.899965214626	1400
83	104317	2.939965214626	1400
83	106256	2.979965214626	1400
83	107992	3.019965214626	1400
83	109497	3.059965214626	1400
83	110783	3.099965214626	1400
83	111895	3.139965214626	1400
83	112745	3.179965214626	1400
83	113416	3.219965214626	1400
83	114067	3.259965214626	1400
83	114717	3.299965214626	1400
83	115387	3.339965214626	1400
83	116038	3.379965214626	1400
83	116709	3.419965214626	1400
83	117361	3.459965214626	1400
83	118012	3.499965214626	1400
83	118684	3.539965214626	1400
83	119335	3.579965214626	1400
83	120006	3.619965214626	1400
83	120657	3.659965214626	1400
83	121307	3.699965214626	1400
83	121978	3.739965214626	1400
83	122628	3.779965214626	1400
83	123298	3.819965214626	1400
83	123948	3.859965214626	1400
83	124600	3.899965214626	1400
83	125268	3.939965214626	1400
83	125918	3.979965214626	1400
83	126588	4.019965214626	1400
83	127238	4.059965214626	1400
83	127889	4.099965214626	1400
83	128560	4.139965214626	1400
83	129211	4.179965214626	1400
83	129882	4.219965214626	1400
83	130532	4.259965214626	1400
83	131182	4.299965214626	1400
83	131853	4.339965214626	1400
83	132504	4.379965214626	1400
83	133175	4.419965214626	1400
83	133824	4.459965214626	1400
83	134476	4.499965214626	1400
83	135147	4.539965214626	1400
83	135798	4.579965214626	1400
83	136467	4.619965214626	1400
83	137119	4.659965214626	1400
83	137771	4.699965214626	1400
83	138443	4.739965214626	1400
83	139095	4.779965214626	1400
83	139762	4.819965214626	1400
83	140308	4.859965214626	1400
83	140910	4.899965214626	1400
83	141804	4.939965214626	1400
83	143139	4.979965214626	1400
83	145341	5.019965214626	1400
83	148223	5.059965214626	1400