file 27028277 1471641607                                        
version 2
run _14to17off-3-20160819-23:12:02-4957
attr configname _14to17off
attr datetime 20160819-23:12:02
attr experiment _14to17off
attr inifile omnetpp.ini
attr iterationvars $0=14
attr iterationvars2 "$0=14, $repetition=3"
attr measurement $0=14
attr network University
attr processid 4957
attr repetition 3
attr replication #3
attr resultdir results
attr runnumber 3
attr seedset 3

vector 292  University.whostVideoConf.udpApp[0]  sentPk:vector(packetBytes)  ETV
attr interpolationmode  none
attr source  sentPk
attr title  "packets sent, vector(packetBytes)"
vector 76  University.profLaptop.udpApp[0]  sentPk:vector(packetBytes)  ETV
attr interpolationmode  none
attr source  sentPk
attr title  "packets sent, vector(packetBytes)"
vector 75  University.profLaptop.udpApp[0]  rcvdPk:vector(packetBytes)  ETV
attr interpolationmode  none
attr source  rcvdPk
attr title  "packets received, vector(packetBytes)"
vector 77  University.profLaptop.udpApp[0]  rcvdPkLifetime:vector  ETV
attr interpolationmode  none
attr source  messageAge(rcvdPk)
attr title  "received packet lifetime, vector"
attr unit  s
vector 270  University.whttpStudents[12].tcpApp[0]  numActiveSessions:vector  ETV
attr interpolationmode  sample-hold
attr source  sum(connect)
attr title  "number of active sessions, vector"
vector 515  University.whostVideoConf.wlan[0].outputHook[0]  "thruput (bit/sec)"  ETV
vector 516  University.whostVideoConf.wlan[0].outputHook[0]  packet/sec  ETV
vector 343  University.mainR.ppp[0].outputHook[0]  "thruput (bit/sec)"  ETV
vector 344  University.mainR.ppp[0].outputHook[0]  packet/sec  ETV
vector 363  University.profLaptop.ppp[0].outputHook[0]  "thruput (bit/sec)"  ETV
vector 364  University.profLaptop.ppp[0].outputHook[0]  packet/sec  ETV
vector 349  University.mainR.ppp[1].inputHook[0]  "thruput (bit/sec)"  ETV
vector 350  University.mainR.ppp[1].inputHook[0]  packet/sec  ETV
vector 347  University.mainR.ppp[1].outputHook[0]  "thruput (bit/sec)"  ETV
vector 348  University.mainR.ppp[1].outputHook[0]  packet/sec  ETV
vector 365  University.profLaptop.ppp[0].inputHook[0]  "thruput (bit/sec)"  ETV
vector 366  University.profLaptop.ppp[0].inputHook[0]  packet/sec  ETV
vector 341  University.remoteR.ppp[0].inputHook[0]  "thruput (bit/sec)"  ETV
vector 342  University.remoteR.ppp[0].inputHook[0]  packet/sec  ETV
vector 537  University.accessPoint.wlan[0].inputHook[0]  "thruput (bit/sec)"  ETV
vector 538  University.accessPoint.wlan[0].inputHook[0]  packet/sec  ETV
vector 545  University.accessPoint.eth[0].outputHook[0]  "thruput (bit/sec)"  ETV
vector 546  University.accessPoint.eth[0].outputHook[0]  packet/sec  ETV
vector 333  University.remoteR.eth[0].inputHook[0]  "thruput (bit/sec)"  ETV
vector 334  University.remoteR.eth[0].inputHook[0]  packet/sec  ETV
vector 339  University.remoteR.ppp[0].outputHook[0]  "thruput (bit/sec)"  ETV
vector 340  University.remoteR.ppp[0].outputHook[0]  packet/sec  ETV
vector 345  University.mainR.ppp[0].inputHook[0]  "thruput (bit/sec)"  ETV
vector 346  University.mainR.ppp[0].inputHook[0]  packet/sec  ETV
vector 331  University.remoteR.eth[0].outputHook[0]  "thruput (bit/sec)"  ETV
vector 332  University.remoteR.eth[0].outputHook[0]  packet/sec  ETV
vector 547  University.accessPoint.eth[0].inputHook[0]  "thruput (bit/sec)"  ETV
vector 548  University.accessPoint.eth[0].inputHook[0]  packet/sec  ETV
vector 535  University.accessPoint.wlan[0].outputHook[0]  "thruput (bit/sec)"  ETV
vector 536  University.accessPoint.wlan[0].outputHook[0]  packet/sec  ETV
vector 377  University.whttpStudents[0].wlan[0].inputHook[0]  "thruput (bit/sec)"  ETV
vector 378  University.whttpStudents[0].wlan[0].inputHook[0]  packet/sec  ETV
vector 351  University.mainR.ppp[2].outputHook[0]  "thruput (bit/sec)"  ETV
vector 352  University.mainR.ppp[2].outputHook[0]  packet/sec  ETV
vector 369  University.Server.ppp[0].inputHook[0]  "thruput (bit/sec)"  ETV
vector 370  University.Server.ppp[0].inputHook[0]  packet/sec  ETV
vector 367  University.Server.ppp[0].outputHook[0]  "thruput (bit/sec)"  ETV
vector 368  University.Server.ppp[0].outputHook[0]  packet/sec  ETV
vector 353  University.mainR.ppp[2].inputHook[0]  "thruput (bit/sec)"  ETV
vector 354  University.mainR.ppp[2].inputHook[0]  packet/sec  ETV
vector 375  University.whttpStudents[0].wlan[0].outputHook[0]  "thruput (bit/sec)"  ETV
vector 376  University.whttpStudents[0].wlan[0].outputHook[0]  packet/sec  ETV
vector 258  University.whttpStudents[11].tcpApp[0]  numActiveSessions:vector  ETV
attr interpolationmode  sample-hold
attr source  sum(connect)
attr title  "number of active sessions, vector"
vector 495  University.whttpStudents[12].wlan[0].outputHook[0]  "thruput (bit/sec)"  ETV
vector 496  University.whttpStudents[12].wlan[0].outputHook[0]  packet/sec  ETV
vector 282  University.whttpStudents[13].tcpApp[0]  numActiveSessions:vector  ETV
attr interpolationmode  sample-hold
attr source  sum(connect)
attr title  "number of active sessions, vector"
vector 198  University.whttpStudents[6].tcpApp[0]  numActiveSessions:vector  ETV
attr interpolationmode  sample-hold
attr source  sum(connect)
attr title  "number of active sessions, vector"
vector 387  University.whttpStudents[1].wlan[0].inputHook[0]  "thruput (bit/sec)"  ETV
vector 388  University.whttpStudents[1].wlan[0].inputHook[0]  packet/sec  ETV
vector 427  University.whttpStudents[5].wlan[0].inputHook[0]  "thruput (bit/sec)"  ETV
vector 428  University.whttpStudents[5].wlan[0].inputHook[0]  packet/sec  ETV
vector 507  University.whttpStudents[13].wlan[0].inputHook[0]  "thruput (bit/sec)"  ETV
vector 508  University.whttpStudents[13].wlan[0].inputHook[0]  packet/sec  ETV
vector 497  University.whttpStudents[12].wlan[0].inputHook[0]  "thruput (bit/sec)"  ETV
vector 498  University.whttpStudents[12].wlan[0].inputHook[0]  packet/sec  ETV
vector 457  University.whttpStudents[8].wlan[0].inputHook[0]  "thruput (bit/sec)"  ETV
vector 458  University.whttpStudents[8].wlan[0].inputHook[0]  packet/sec  ETV
vector 487  University.whttpStudents[11].wlan[0].inputHook[0]  "thruput (bit/sec)"  ETV
vector 488  University.whttpStudents[11].wlan[0].inputHook[0]  packet/sec  ETV
vector 527  University.whostFTP.wlan[0].inputHook[0]  "thruput (bit/sec)"  ETV
vector 528  University.whostFTP.wlan[0].inputHook[0]  packet/sec  ETV
vector 477  University.whttpStudents[10].wlan[0].inputHook[0]  "thruput (bit/sec)"  ETV
vector 478  University.whttpStudents[10].wlan[0].inputHook[0]  packet/sec  ETV
vector 447  University.whttpStudents[7].wlan[0].inputHook[0]  "thruput (bit/sec)"  ETV
vector 448  University.whttpStudents[7].wlan[0].inputHook[0]  packet/sec  ETV
vector 397  University.whttpStudents[2].wlan[0].inputHook[0]  "thruput (bit/sec)"  ETV
vector 398  University.whttpStudents[2].wlan[0].inputHook[0]  packet/sec  ETV
vector 517  University.whostVideoConf.wlan[0].inputHook[0]  "thruput (bit/sec)"  ETV
vector 518  University.whostVideoConf.wlan[0].inputHook[0]  packet/sec  ETV
vector 467  University.whttpStudents[9].wlan[0].inputHook[0]  "thruput (bit/sec)"  ETV
vector 468  University.whttpStudents[9].wlan[0].inputHook[0]  packet/sec  ETV
vector 417  University.whttpStudents[4].wlan[0].inputHook[0]  "thruput (bit/sec)"  ETV
vector 418  University.whttpStudents[4].wlan[0].inputHook[0]  packet/sec  ETV
vector 407  University.whttpStudents[3].wlan[0].inputHook[0]  "thruput (bit/sec)"  ETV
vector 408  University.whttpStudents[3].wlan[0].inputHook[0]  packet/sec  ETV
vector 437  University.whttpStudents[6].wlan[0].inputHook[0]  "thruput (bit/sec)"  ETV
vector 438  University.whttpStudents[6].wlan[0].inputHook[0]  packet/sec  ETV
vector 123  University.whttpStudents[0].tcpApp[0]  rcvdPk:vector(packetBytes)  ETV
attr interpolationmode  none
attr source  rcvdPk
attr title  "packets received, vector(packetBytes)"
vector 125  University.whttpStudents[0].tcpApp[0]  endToEndDelay:vector  ETV
attr interpolationmode  none
attr source  messageAge(rcvdPk)
attr title  "end-to-end delay, vector"
attr unit  s
vector 126  University.whttpStudents[0].tcpApp[0]  numActiveSessions:vector  ETV
attr interpolationmode  sample-hold
attr source  sum(connect)
attr title  "number of active sessions, vector"
vector 222  University.whttpStudents[8].tcpApp[0]  numActiveSessions:vector  ETV
attr interpolationmode  sample-hold
attr source  sum(connect)
attr title  "number of active sessions, vector"
vector 485  University.whttpStudents[11].wlan[0].outputHook[0]  "thruput (bit/sec)"  ETV
vector 486  University.whttpStudents[11].wlan[0].outputHook[0]  packet/sec  ETV
vector 505  University.whttpStudents[13].wlan[0].outputHook[0]  "thruput (bit/sec)"  ETV
vector 506  University.whttpStudents[13].wlan[0].outputHook[0]  packet/sec  ETV
vector 435  University.whttpStudents[6].wlan[0].outputHook[0]  "thruput (bit/sec)"  ETV
vector 436  University.whttpStudents[6].wlan[0].outputHook[0]  packet/sec  ETV
vector 405  University.whttpStudents[3].wlan[0].outputHook[0]  "thruput (bit/sec)"  ETV
vector 406  University.whttpStudents[3].wlan[0].outputHook[0]  packet/sec  ETV
vector 455  University.whttpStudents[8].wlan[0].outputHook[0]  "thruput (bit/sec)"  ETV
vector 456  University.whttpStudents[8].wlan[0].outputHook[0]  packet/sec  ETV
vector 445  University.whttpStudents[7].wlan[0].outputHook[0]  "thruput (bit/sec)"  ETV
vector 446  University.whttpStudents[7].wlan[0].outputHook[0]  packet/sec  ETV
vector 525  University.whostFTP.wlan[0].outputHook[0]  "thruput (bit/sec)"  ETV
vector 526  University.whostFTP.wlan[0].outputHook[0]  packet/sec  ETV
vector 395  University.whttpStudents[2].wlan[0].outputHook[0]  "thruput (bit/sec)"  ETV
vector 396  University.whttpStudents[2].wlan[0].outputHook[0]  packet/sec  ETV
vector 465  University.whttpStudents[9].wlan[0].outputHook[0]  "thruput (bit/sec)"  ETV
vector 466  University.whttpStudents[9].wlan[0].outputHook[0]  packet/sec  ETV
vector 425  University.whttpStudents[5].wlan[0].outputHook[0]  "thruput (bit/sec)"  ETV
vector 426  University.whttpStudents[5].wlan[0].outputHook[0]  packet/sec  ETV
vector 415  University.whttpStudents[4].wlan[0].outputHook[0]  "thruput (bit/sec)"  ETV
vector 416  University.whttpStudents[4].wlan[0].outputHook[0]  packet/sec  ETV
vector 124  University.whttpStudents[0].tcpApp[0]  sentPk:vector(packetBytes)  ETV
attr interpolationmode  none
attr source  sentPk
attr title  "packets sent, vector(packetBytes)"
vector 94  University.Server.tcpApp[0]  rcvdPk:vector(packetBytes)  ETV
attr interpolationmode  none
attr source  rcvdPk
attr title  "packets received, vector(packetBytes)"
vector 96  University.Server.tcpApp[0]  endToEndDelay:vector  ETV
attr interpolationmode  none
attr source  messageAge(rcvdPk)
attr title  "end-to-end delay, vector"
attr unit  s
vector 95  University.Server.tcpApp[0]  sentPk:vector(packetBytes)  ETV
attr interpolationmode  none
attr source  sentPk
attr title  "packets sent, vector(packetBytes)"
vector 138  University.whttpStudents[1].tcpApp[0]  numActiveSessions:vector  ETV
attr interpolationmode  sample-hold
attr source  sum(connect)
attr title  "number of active sessions, vector"
vector 385  University.whttpStudents[1].wlan[0].outputHook[0]  "thruput (bit/sec)"  ETV
vector 386  University.whttpStudents[1].wlan[0].outputHook[0]  packet/sec  ETV
vector 246  University.whttpStudents[10].tcpApp[0]  numActiveSessions:vector  ETV
attr interpolationmode  sample-hold
attr source  sum(connect)
attr title  "number of active sessions, vector"
vector 475  University.whttpStudents[10].wlan[0].outputHook[0]  "thruput (bit/sec)"  ETV
vector 476  University.whttpStudents[10].wlan[0].outputHook[0]  packet/sec  ETV
vector 310  University.whostFTP.tcpApp[0]  numActiveSessions:vector  ETV
attr interpolationmode  sample-hold
attr source  sum(connect)
attr title  "number of active sessions, vector"
vector 150  University.whttpStudents[2].tcpApp[0]  numActiveSessions:vector  ETV
attr interpolationmode  sample-hold
attr source  sum(connect)
attr title  "number of active sessions, vector"
vector 174  University.whttpStudents[4].tcpApp[0]  numActiveSessions:vector  ETV
attr interpolationmode  sample-hold
attr source  sum(connect)
attr title  "number of active sessions, vector"
vector 210  University.whttpStudents[7].tcpApp[0]  numActiveSessions:vector  ETV
attr interpolationmode  sample-hold
attr source  sum(connect)
attr title  "number of active sessions, vector"
vector 234  University.whttpStudents[9].tcpApp[0]  numActiveSessions:vector  ETV
attr interpolationmode  sample-hold
attr source  sum(connect)
attr title  "number of active sessions, vector"
vector 162  University.whttpStudents[3].tcpApp[0]  numActiveSessions:vector  ETV
attr interpolationmode  sample-hold
attr source  sum(connect)
attr title  "number of active sessions, vector"
vector 186  University.whttpStudents[5].tcpApp[0]  numActiveSessions:vector  ETV
attr interpolationmode  sample-hold
attr source  sum(connect)
attr title  "number of active sessions, vector"
75	12982 4430628 281721 81789860 5.03452993464 5264.23452993464 131481 1400 1400 184073400 257702760000
76	4443610 4558489 281192 81789834 5.028325912887 5264.228325912887 131481 1400 1400 184073400 257702760000
77	9002099 5745028 281721 81789860 5.03452993464 5264.23452993464 131481 0.016345624042 0.109897931868 2155.7717545438 35.404064058425
94	14747127 9037 477608 81292792 24.935877876749 5228.466761266922 286 1 1 286 286
95	14756164 10505 477608 81292792 24.935877876749 5228.466761266922 286 1364 4140407 221920971 3.7077264242455e+14
96	14766669 12191 477608 81292792 24.935877876749 5228.466761266922 286 0.0348182016 0.036087989768 9.972358050346 0.34772571125463
123	14778860 10825 390011 81627332 9.805404293988 5236.148596616031 287 1364 4140407 223264283 3.7257712955389e+14
124	14789685 9322 477164 81292207 24.901041675149 5228.431907065322 286 1 1 286 286
125	14799007 13062 390011 81627332 9.805404293988 5236.148596616031 287 0.048487498029 11.801974191113 986.80563349855 6942.7351009813
126	14812069 19000 390011 81789866 9.805404293988 5264.254290781596 574 -1 0 -287 287
138	14831069 1969 645500 81693158 33.516462693891 5247.842006983302 59 1 59 1770 70210
150	14833038 1940 1906131 81698200 75.417523645776 5248.536635863737 58 1 58 1711 66729
162	14834978 1939 2286909 81757444 90.199804930885 5258.602749446807 58 1 58 1711 66729
174	14836917 1942 1978253 81695250 78.416933631746 5248.105579846454 58 1 58 1711 66729
186	14838859 1901 2319256 81107105 95.876865343045 5196.00788218152 57 1 57 1653 63365
198	14840760 1970 360333 81196655 9.054322743117 5211.371466515459 59 1 59 1770 70210
210	14842730 1974 2273395 81698038 87.807838533813 5248.519580736475 59 1 59 1770 70210
222	14844704 1934 392929 80973180 10.177896431758 5184.535235348883 58 1 58 1711 66729
234	14846638 1974 2279419 81689926 88.890728164488 5247.348431866887 59 1 59 1770 70210
246	14848612 1970 762315 81002918 54.543320874612 5186.075782052797 59 1 59 1770 70210
258	14850582 1967 339582 81235799 8.044746473816 5218.31784891214 59 1 59 1770 70210
270	14852549 1969 290056 81724324 5.487046335963 5252.938821308553 59 1 59 1770 70210
282	14854518 1934 353218 81215831 8.70943563899 5214.844373284271 58 1 58 1711 66729
292	14856452 4689969 280930 81789679 5.018184310598 5264.218184310598 131481 1400 1400 184073400 257702760000
310	19546421 1440 1803353 81706825 75 5250 70 1 70 2485 116795
331	19547861 68742 301795 81789952 5.075913563333 5259.844445108392 1478 7.5417486835966 11150470.841526 1552447364.9066 7.5912620474917e+15
332	19616603 69141 301795 81789952 5.075913563333 5259.844445108392 1478 0.033668520908914 930.72679034601 130248.02813129 53116855.044634
333	19685744 202310 301107 81786986 5.02854425847 5262.698573267974 5253 276545.40096286 585160.52822205 1551049776.3198 4.6329277240835e+14
334	19888054 183511 301107 81786986 5.02854425847 5262.698573267974 5253 25 926.50683493291 289348.65662912 67071566.220783
339	20071565 202311 301109 81786988 5.02854425847 5262.698573267974 5253 276545.40096286 585160.52822205 1550922256.4461 4.6321669820043e+14
340	20273876 183511 301109 81786988 5.02854425847 5262.698573267974 5253 25 926.50683493291 288779.54943113 66999758.639154
341	20457387 52672 300878 81614511 5.027746265221 5234.507806428931 1132 22.258119676011 11095757.005487 1514408510.3152 7.585221235233e+15
342	20510059 52731 300878 81614511 5.027746265221 5234.507806428931 1132 0.069556623987536 925.18594240347 126718.74793058 53021372.261321
343	20562790 52657 300834 81614467 5.016741598555 5234.496801762265 1132 14.716011921771 10987689.734556 1706005199.1271 1.0096163795762e+16
344	20615447 52721 300834 81614467 5.016741598555 5234.496801762265 1132 0.045987537255534 915.64081121302 142703.65469393 70542182.694853
345	20668168 197293 301488 81787051 5.038575591803 5262.70952993464 5253 276298.94257806 585160.52822205 1550907832.1223 4.6321474767421e+14
346	20865461 178427 301488 81787051 5.038575591803 5262.70952993464 5253 25 926.50683493291 288734.20628789 66966296.386843
347	21043888 198110 300863 81788773 5.033325912887 5263.033325912887 5259 273952 319648 1560871200 4.6327127043994e+14
348	21241998 177074 300863 81788773 5.033325912887 5263.033325912887 5259 48 52 262950 13147536
349	21419072 198110 300860 81788770 5.033325912887 5263.033325912887 5259 285600 285600 1501970400 4.2896274624e+14
350	21617182 177074 300860 81788770 5.033325912887 5263.033325912887 5259 25 25 131475 3286875
351	21794256 137322 302429 81784874 5.086742889915 5261.612861963008 2962 119.51865892001 292521.23257461 47654838.193388 5487786489097
352	21931578 137755 302429 81784874 5.086742889915 5261.612861963008 2962 0.33645347427402 910.53070630421 146362.77897909 53318235.046438
353	22069333 136318 302622 81785071 5.113076194779 5261.639079107872 2941 92.40020005995 11102386.822318 1841474900.5905 1.0062409576049e+16
354	22205651 136816 302622 81785071 5.113076194779 5261.639079107872 2941 0.26250056835213 927.04633471362 159089.08996874 70794602.391623
363	22342467 198110 300840 81788758 5.028325912887 5263.028325912887 5259 285600 285600 1501970400 4.2896274624e+14
364	22540577 177074 300840 81788758 5.028325912887 5263.028325912887 5259 25 25 131475 3286875
365	22717651 198110 300873 81788783 5.038325912887 5263.038325912887 5259 273952 319648 1560871200 4.6327127043994e+14
366	22915761 177074 300873 81788783 5.038325912887 5263.038325912887 5259 48 52 262950 13147536
367	23092835 136339 302609 81785051 5.110755121641 5261.636874834734 2941 92.40020005995 12373538.204904 1861016456.302 1.027746626734e+16
368	23229174 136812 302609 81785051 5.110755121641 5261.636874834734 2941 0.26250056835213 1032.561205948 160718.57951264 72298045.680797
369	23365986 137351 302604 81785050 5.110755121641 5261.636874834734 2962 119.5186303506 292521.23257461 47654847.184396 5487789247837.1
370	23503337 137757 302604 81785050 5.110755121641 5261.636874834734 2962 0.33645354672264 910.53070630421 146362.80697289 53318261.833097
375	23641094 52861 319474 81789870 5.991500384085 5235.471560547795 1136 7.1249893769606 288760.71778702 40291836.53217 5278033111332.4
376	23693955 52920 319474 81789870 5.991500384085 5235.471560547795 1136 0.022265591803002 902.37724308445 125881.65072452 51517087.228036
377	23746875 68655 301858 81765152 5.076321719957 5258.603909512967 1477 7.5417486835966 10831181.45513 1543270453.9853 7.4658081638786e+15
378	23815530 69041 301858 81765152 5.076321719957 5258.603909512967 1477 0.033668520908914 902.63643929483 129481.52287272 52243596.025891
385	23884571 10910 662286 81747122 33.516462693891 5250.842006983302 292 4.3417893329088 202.66666666667 15889.926633862 1628895.7795705
386	23895481 14040 662286 81747122 33.516462693891 5250.842006983302 292 0.01130674305445 0.66666666666667 43.695744229139 13.338941516316
387	23909521 22299 360522 81790055 8.045906495827 5259.845533303072 480 1.8662653596675 644.82904699976 38351.8948505 6921385.5698676
388	23931820 22896 360522 81790055 8.045906495827 5259.845533303072 480 0.0083315417842301 2.8787011026775 171.21381629687 137.94215501171
395	23954716 10817 456251 81751366 9.283889732148 5251.536635863737 290 3.7162428301413 202.66666666667 15753.494769575 1650199.6348594
396	23965533 13964 456251 81751366 9.283889732148 5251.536635863737 290 0.0096777157034929 0.66666666666667 43.428708107027 13.762552015726
397	23979497 22190 360584 81765158 8.045906517916 5258.603909513111 478 1.8662653596675 644.8698875282 38278.916861149 6918445.6370713
398	24001687 22786 360584 81765158 8.045906517916 5258.603909513111 478 0.0083315417842301 2.8788834264652 170.88802170156 137.88356260107
405	24024473 10769 406991 81775054 6.483575737032 5258.602749446807 290 4.0635388218802 202.66666666667 15673.589237115 1629204.8208002
406	24035242 13955 406991 81775054 6.483575737032 5258.602749446807 290 0.010582132348646 0.66666666666667 43.101683774889 13.481730697289
407	24049197 22153 360608 81765182 8.045906530682 5258.604029525877 478 1.8662653596675 644.82904699976 38278.864644214 6918441.9339599
408	24071350 22750 360608 81765182 8.045906530682 5258.604029525877 478 0.0083315417842301 2.8787011026775 170.88778859024 137.88348879863
415	24094100 10820 463307 81748815 10.473315861552 5251.105579846454 290 3.7766990878499 202.66666666667 15669.021885964 1623363.493119
416	24104920 13983 463307 81748815 10.473315861552 5251.105579846454 290 0.0098351538746091 0.66666666666667 43.065492727845 13.401482656661
417	24118903 22148 360602 81765176 8.045906525472 5258.603909520667 478 1.8662653596675 644.82904699976 38278.858867511 6918424.5674807
418	24141051 22751 360602 81765176 8.045906525472 5258.603909520667 478 0.0083315417842301 2.8787011026775 170.88776280139 137.88314268735
425	24163802 10674 457507 81655060 9.454973996096 5217.00788218152 287 4.4932396376435 202.66666666667 15413.956018243 1579484.4356587
426	24174476 13795 457507 81655060 9.454973996096 5217.00788218152 287 0.011701144889697 0.66666666666667 42.310337739187 12.947739366491
427	24188271 22299 360528 81790061 8.04590650473 5259.845533311975 480 1.8662653596675 644.82904699976 38351.932147753 6921426.1593113
428	24210570 22912 360528 81790061 8.04590650473 5259.845533311975 480 0.0083315417842301 2.8787011026775 171.21398280247 137.94296395311
435	24233482 10964 404446 81743865 9.054322743117 5232.371466515459 294 3.5196877457766 202.66666666667 16173.72402806 1726887.5301823
436	24244446 14158 404446 81743865 9.054322743117 5232.371466515459 294 0.0091658535046266 0.66666666666667 44.864111170081 14.65282552336
437	24258604 22237 360663 81765146 8.045906514979 5258.603909510174 479 1.8662653596675 644.82904699976 38301.094086302 6918777.8808553
438	24280841 22840 360663 81765146 8.045906514979 5258.603909510174 479 0.0083315417842301 2.8787011026775 170.98702717099 137.89018416883
445	24303681 11000 415017 81751205 7.89607914731 5251.519580736475 296 3.852678446072 202.66666666667 15860.345106131 1586061.8081027
446	24314681 14248 415017 81751205 7.89607914731 5251.519580736475 296 0.010033016786646 0.66666666666667 43.309490991711 12.72197041411
447	24328929 22154 360570 81765140 8.045906512572 5258.603909507767 478 1.8662653596675 644.82904699976 38278.894788941 6918458.8514972
448	24351083 22757 360570 81765140 8.045906512572 5258.603909507767 478 0.0083315417842301 2.8787011026775 170.88792316491 137.88382596256
455	24373840 10765 410874 81494631 10.177896431758 5205.535235348883 289 5.1325532178614 202.66666666667 15714.84900521 1630605.8624473
456	24384605 13894 410874 81494631 10.177896431758 5205.535235348883 289 0.013366024004847 0.66666666666667 43.298978801325 13.500622290805
457	24398499 22289 360546 81790079 8.045906506419 5259.845533313664 480 1.8662653596675 644.82904699976 38351.798803026 6921378.3922136
458	24420788 22891 360546 81790079 8.045906506419 5259.845533313664 480 0.0083315417842301 2.8787011026775 171.21338751351 137.94201196217
465	24443679 10983 456879 81743678 9.364111956548 5250.348431866887 295 4.4327497908167 202.66666666667 16148.211316966 1721572.607278
466	24454662 14208 456879 81743678 9.364111956548 5250.348431866887 295 0.011543619246918 0.66666666666667 44.730097244363 14.580288792355
467	24468870 22202 360596 81765170 8.045906519377 5258.603909514572 478 1.8662653596675 644.75480474507 38278.764866113 6918362.8750582
468	24491072 22798 360596 81765170 8.045906519377 5258.603909514572 478 0.0083315417842301 2.8783696640405 170.88734315229 137.88191316682
475	24513870 10957 948621 81529768 54.543320874612 5207.075782052797 294 4.596938637661 202.66666666667 15938.444800399 1644676.5201137
476	24524827 14146 948621 81529768 54.543320874612 5207.075782052797 294 0.011971194368909 0.66666666666667 43.795203585604 13.541488493756
477	24538973 22200 360564 81765134 8.04590650931 5258.603909504505 478 1.8662653596675 644.82904699976 38278.883231908 6918429.4112953
478	24561173 22813 360564 81765134 8.04590650931 5258.603909504505 478 0.0083315417842301 2.8787011026775 170.88787157102 137.88323922384
485	24583986 10970 398651 81784714 8.044746473816 5239.31784891214 294 4.1041394530104 202.66666666667 16067.950607701 1695977.6769543
486	24594956 14143 398651 81784714 8.044746473816 5239.31784891214 294 0.010687863158881 0.66666666666667 44.388280754956 14.234947526606
487	24609099 22294 360552 81790085 8.045972508478 5259.845533315723 480 1.8662653596675 644.82904699976 38352.016192427 6921471.6559153
488	24631393 22899 360552 81790085 8.045972508478 5259.845533315723 480 0.0083315417842301 2.8787011026775 171.21435800191 137.94387069347
495	24654292 10950 348529 81777120 5.487046335963 5255.938821308553 292 3.2664937631673 202.66666666667 16056.109884575 1698033.7056749
496	24665242 14055 348529 81777120 5.487046335963 5255.938821308553 292 0.0085064941749149 0.66666666666667 44.436659586745 14.272029880747
497	24679297 22250 360540 81790073 8.045906506011 5259.845533313256 479 1.8662653596675 644.82904699976 38329.733109705 6921004.1209513
498	24701547 22844 360540 81790073 8.045906506011 5259.845533313256 479 0.0083315417842301 2.8787011026775 171.11487995404 137.93455279319
505	24724391 10760 402509 81764911 8.70943563899 5235.844373284271 289 3.4793001906055 202.66666666667 15875.569409017 1698782.9080026
506	24735151 13898 402509 81764911 8.70943563899 5235.844373284271 289 0.0090606775797019 0.66666666666667 44.015366560602 14.420950294358
507	24749049 22241 360534 81790067 8.045906505268 5259.845644312513 479 1.8662653596675 644.82904699976 38329.651781379 6921007.9084777
508	24771290 22842 360534 81790067 8.045906505268 5259.845644312513 479 0.0083315417842301 2.8787011026775 171.11451688116 137.93462827802
515	24794132 198110 300661 81788603 5.018184310598 5263.018184310598 5259 285600 285824 1501979136 4.2896773820006e+14
516	24992242 177074 300661 81788603 5.018184310598 5263.018184310598 5259 25 26 131514 3288864
517	25169316 22212 360590 81765164 8.045906518523 5258.603909513718 479 1.8662634938053 644.82904699976 38301.238492294 6918877.3722861
518	25191528 22802 360590 81765164 8.045906518523 5258.603909513718 479 0.0083315334544878 2.8787011026775 170.9876718406 137.89216701782
525	25214330 7832 454616 81760203 9 5253 350 12.8 202.66666666667 19822.133333333 2227386.8088889
526	25222162 12346 454616 81760203 9 5253 350 0.033333333333333 0.66666666666667 55.575 19.759930555556
527	25234508 22255 360558 81790091 8.045906508592 5259.845533315837 480 1.8662653596675 644.82904699976 38352.027860059 6921476.9914856
528	25256763 22801 360558 81765128 8.045906508592 5258.603909503787 479 0.0083315417842301 2.8787011026775 170.9876484783 137.89255620223
535	25279564 68752 301802 81789978 5.076035693333 5259.844450918392 1478 17.238282705364 11284639.457078 1571128454.0548 7.7715603004992e+15
536	25348316 69129 301802 81789978 5.076035693333 5259.844450918392 1478 0.033668520908914 930.72679034601 130237.53467509 53090764.065916
537	25417445 202284 301067 81786934 5.02853844847 5262.698458337974 5253 277314.90493096 757932.56437506 1581152124.271 4.894407472783e+14
538	25619729 183461 301067 81786934 5.02853844847 5262.698458337974 5253 25 926.50683493291 289336.58244766 67060059.688361
545	25803190 202284 301069 81786936 5.02853844847 5262.698458337974 5253 277314.90493096 757932.56437506 1581152124.271 4.894407472783e+14
546	26005474 183461 301069 81786936 5.02853844847 5262.698458337974 5253 25 926.50683493291 289336.58244766 67060059.688361
547	26188935 68752 301800 81789976 5.076035693333 5259.844450918392 1478 17.238282705364 11284639.457078 1571128454.0548 7.7715603004992e+15
548	26257687 69129 301800 81789976 5.076035693333 5259.844450918392 1478 0.033668520908914 930.72679034601 130237.53467509 53090764.065916
75	26326816 119721 81790625 83792201 5264.27452993464 5404.99452993464 3519 1400 1400 4926600 6897240000
76	26446537 123165 81790599 83792175 5264.268325912887 5404.988325912887 3519 1400 1400 4926600 6897240000
77	26569702 154904 81790625 83792201 5264.27452993464 5404.99452993464 3519 0.016345624042 0.035563622631 57.695544763235 0.94709955349094
94	26724606 256 81791388 83308297 5264.337208987892 5384.105404095044 8 1 1 8 8
95	26724862 298 81791388 83308297 5264.337208987892 5384.105404095044 8 134746 1599166 5213625 5670445670827
96	26725160 344 81791388 83308297 5264.337208987892 5384.105404095044 8 0.0348182016 0.0348812016 0.2787076128 0.0097097447165843
123	26725504 306 81839500 83720130 5264.721388184783 5392.063328678585 8 134746 1599166 5213625 5670445670827
124	26725810 264 81790944 83307640 5264.302327786292 5384.070558893444 8 1 1 8 8
125	26726074 368 81839500 83720130 5264.721388184783 5392.063328678585 8 0.368478970083 7.992769785141 23.82736597067 154.82707838291
126	26726442 501 81839500 83720130 5264.721388184783 5392.063328678585 15 -1 0 -8 8
138	26726943 34 82569877 82569877 5329.519745544055 5329.519745544055 1 60 60 60 3600