file 26940046 1471642118                                        
version 2
run _14to17off-7-20160819-23:20:15-5080
attr configname _14to17off
attr datetime 20160819-23:20:15
attr experiment _14to17off
attr inifile omnetpp.ini
attr iterationvars $0=14
attr iterationvars2 "$0=14, $repetition=7"
attr measurement $0=14
attr network University
attr processid 5080
attr repetition 7
attr replication #7
attr resultdir results
attr runnumber 7
attr seedset 7

vector 75  University.profLaptop.udpApp[0]  rcvdPk:vector(packetBytes)  ETV
attr interpolationmode  none
attr source  rcvdPk
attr title  "packets received, vector(packetBytes)"
vector 77  University.profLaptop.udpApp[0]  rcvdPkLifetime:vector  ETV
attr interpolationmode  none
attr source  messageAge(rcvdPk)
attr title  "received packet lifetime, vector"
attr unit  s
vector 76  University.profLaptop.udpApp[0]  sentPk:vector(packetBytes)  ETV
attr interpolationmode  none
attr source  sentPk
attr title  "packets sent, vector(packetBytes)"
vector 292  University.whostVideoConf.udpApp[0]  sentPk:vector(packetBytes)  ETV
attr interpolationmode  none
attr source  sentPk
attr title  "packets sent, vector(packetBytes)"
vector 365  University.profLaptop.ppp[0].inputHook[0]  "thruput (bit/sec)"  ETV
vector 366  University.profLaptop.ppp[0].inputHook[0]  packet/sec  ETV
vector 198  University.whttpStudents[6].tcpApp[0]  numActiveSessions:vector  ETV
attr interpolationmode  sample-hold
attr source  sum(connect)
attr title  "number of active sessions, vector"
vector 363  University.profLaptop.ppp[0].outputHook[0]  "thruput (bit/sec)"  ETV
vector 364  University.profLaptop.ppp[0].outputHook[0]  packet/sec  ETV
vector 515  University.whostVideoConf.wlan[0].outputHook[0]  "thruput (bit/sec)"  ETV
vector 516  University.whostVideoConf.wlan[0].outputHook[0]  packet/sec  ETV
vector 537  University.accessPoint.wlan[0].inputHook[0]  "thruput (bit/sec)"  ETV
vector 538  University.accessPoint.wlan[0].inputHook[0]  packet/sec  ETV
vector 545  University.accessPoint.eth[0].outputHook[0]  "thruput (bit/sec)"  ETV
vector 546  University.accessPoint.eth[0].outputHook[0]  packet/sec  ETV
vector 333  University.remoteR.eth[0].inputHook[0]  "thruput (bit/sec)"  ETV
vector 334  University.remoteR.eth[0].inputHook[0]  packet/sec  ETV
vector 339  University.remoteR.ppp[0].outputHook[0]  "thruput (bit/sec)"  ETV
vector 340  University.remoteR.ppp[0].outputHook[0]  packet/sec  ETV
vector 349  University.mainR.ppp[1].inputHook[0]  "thruput (bit/sec)"  ETV
vector 350  University.mainR.ppp[1].inputHook[0]  packet/sec  ETV
vector 347  University.mainR.ppp[1].outputHook[0]  "thruput (bit/sec)"  ETV
vector 348  University.mainR.ppp[1].outputHook[0]  packet/sec  ETV
vector 345  University.mainR.ppp[0].inputHook[0]  "thruput (bit/sec)"  ETV
vector 346  University.mainR.ppp[0].inputHook[0]  packet/sec  ETV
vector 351  University.mainR.ppp[2].outputHook[0]  "thruput (bit/sec)"  ETV
vector 352  University.mainR.ppp[2].outputHook[0]  packet/sec  ETV
vector 369  University.Server.ppp[0].inputHook[0]  "thruput (bit/sec)"  ETV
vector 370  University.Server.ppp[0].inputHook[0]  packet/sec  ETV
vector 367  University.Server.ppp[0].outputHook[0]  "thruput (bit/sec)"  ETV
vector 368  University.Server.ppp[0].outputHook[0]  packet/sec  ETV
vector 353  University.mainR.ppp[2].inputHook[0]  "thruput (bit/sec)"  ETV
vector 354  University.mainR.ppp[2].inputHook[0]  packet/sec  ETV
vector 435  University.whttpStudents[6].wlan[0].outputHook[0]  "thruput (bit/sec)"  ETV
vector 436  University.whttpStudents[6].wlan[0].outputHook[0]  packet/sec  ETV
vector 465  University.whttpStudents[9].wlan[0].outputHook[0]  "thruput (bit/sec)"  ETV
vector 466  University.whttpStudents[9].wlan[0].outputHook[0]  packet/sec  ETV
vector 505  University.whttpStudents[13].wlan[0].outputHook[0]  "thruput (bit/sec)"  ETV
vector 506  University.whttpStudents[13].wlan[0].outputHook[0]  packet/sec  ETV
vector 495  University.whttpStudents[12].wlan[0].outputHook[0]  "thruput (bit/sec)"  ETV
vector 496  University.whttpStudents[12].wlan[0].outputHook[0]  packet/sec  ETV
vector 395  University.whttpStudents[2].wlan[0].outputHook[0]  "thruput (bit/sec)"  ETV
vector 396  University.whttpStudents[2].wlan[0].outputHook[0]  packet/sec  ETV
vector 222  University.whttpStudents[8].tcpApp[0]  numActiveSessions:vector  ETV
attr interpolationmode  sample-hold
attr source  sum(connect)
attr title  "number of active sessions, vector"
vector 331  University.remoteR.eth[0].outputHook[0]  "thruput (bit/sec)"  ETV
vector 332  University.remoteR.eth[0].outputHook[0]  packet/sec  ETV
vector 547  University.accessPoint.eth[0].inputHook[0]  "thruput (bit/sec)"  ETV
vector 548  University.accessPoint.eth[0].inputHook[0]  packet/sec  ETV
vector 535  University.accessPoint.wlan[0].outputHook[0]  "thruput (bit/sec)"  ETV
vector 536  University.accessPoint.wlan[0].outputHook[0]  packet/sec  ETV
vector 427  University.whttpStudents[5].wlan[0].inputHook[0]  "thruput (bit/sec)"  ETV
vector 428  University.whttpStudents[5].wlan[0].inputHook[0]  packet/sec  ETV
vector 447  University.whttpStudents[7].wlan[0].inputHook[0]  "thruput (bit/sec)"  ETV
vector 448  University.whttpStudents[7].wlan[0].inputHook[0]  packet/sec  ETV
vector 477  University.whttpStudents[10].wlan[0].inputHook[0]  "thruput (bit/sec)"  ETV
vector 478  University.whttpStudents[10].wlan[0].inputHook[0]  packet/sec  ETV
vector 377  University.whttpStudents[0].wlan[0].inputHook[0]  "thruput (bit/sec)"  ETV
vector 378  University.whttpStudents[0].wlan[0].inputHook[0]  packet/sec  ETV
vector 397  University.whttpStudents[2].wlan[0].inputHook[0]  "thruput (bit/sec)"  ETV
vector 398  University.whttpStudents[2].wlan[0].inputHook[0]  packet/sec  ETV
vector 387  University.whttpStudents[1].wlan[0].inputHook[0]  "thruput (bit/sec)"  ETV
vector 388  University.whttpStudents[1].wlan[0].inputHook[0]  packet/sec  ETV
vector 417  University.whttpStudents[4].wlan[0].inputHook[0]  "thruput (bit/sec)"  ETV
vector 418  University.whttpStudents[4].wlan[0].inputHook[0]  packet/sec  ETV
vector 497  University.whttpStudents[12].wlan[0].inputHook[0]  "thruput (bit/sec)"  ETV
vector 498  University.whttpStudents[12].wlan[0].inputHook[0]  packet/sec  ETV
vector 517  University.whostVideoConf.wlan[0].inputHook[0]  "thruput (bit/sec)"  ETV
vector 518  University.whostVideoConf.wlan[0].inputHook[0]  packet/sec  ETV
vector 407  University.whttpStudents[3].wlan[0].inputHook[0]  "thruput (bit/sec)"  ETV
vector 408  University.whttpStudents[3].wlan[0].inputHook[0]  packet/sec  ETV
vector 467  University.whttpStudents[9].wlan[0].inputHook[0]  "thruput (bit/sec)"  ETV
vector 468  University.whttpStudents[9].wlan[0].inputHook[0]  packet/sec  ETV
vector 437  University.whttpStudents[6].wlan[0].inputHook[0]  "thruput (bit/sec)"  ETV
vector 438  University.whttpStudents[6].wlan[0].inputHook[0]  packet/sec  ETV
vector 487  University.whttpStudents[11].wlan[0].inputHook[0]  "thruput (bit/sec)"  ETV
vector 488  University.whttpStudents[11].wlan[0].inputHook[0]  packet/sec  ETV
vector 507  University.whttpStudents[13].wlan[0].inputHook[0]  "thruput (bit/sec)"  ETV
vector 508  University.whttpStudents[13].wlan[0].inputHook[0]  packet/sec  ETV
vector 527  University.whostFTP.wlan[0].inputHook[0]  "thruput (bit/sec)"  ETV
vector 528  University.whostFTP.wlan[0].inputHook[0]  packet/sec  ETV
vector 457  University.whttpStudents[8].wlan[0].inputHook[0]  "thruput (bit/sec)"  ETV
vector 458  University.whttpStudents[8].wlan[0].inputHook[0]  packet/sec  ETV
vector 186  University.whttpStudents[5].tcpApp[0]  numActiveSessions:vector  ETV
attr interpolationmode  sample-hold
attr source  sum(connect)
attr title  "number of active sessions, vector"
vector 455  University.whttpStudents[8].wlan[0].outputHook[0]  "thruput (bit/sec)"  ETV
vector 456  University.whttpStudents[8].wlan[0].outputHook[0]  packet/sec  ETV
vector 425  University.whttpStudents[5].wlan[0].outputHook[0]  "thruput (bit/sec)"  ETV
vector 426  University.whttpStudents[5].wlan[0].outputHook[0]  packet/sec  ETV
vector 525  University.whostFTP.wlan[0].outputHook[0]  "thruput (bit/sec)"  ETV
vector 526  University.whostFTP.wlan[0].outputHook[0]  packet/sec  ETV
vector 415  University.whttpStudents[4].wlan[0].outputHook[0]  "thruput (bit/sec)"  ETV
vector 416  University.whttpStudents[4].wlan[0].outputHook[0]  packet/sec  ETV
vector 485  University.whttpStudents[11].wlan[0].outputHook[0]  "thruput (bit/sec)"  ETV
vector 486  University.whttpStudents[11].wlan[0].outputHook[0]  packet/sec  ETV
vector 445  University.whttpStudents[7].wlan[0].outputHook[0]  "thruput (bit/sec)"  ETV
vector 446  University.whttpStudents[7].wlan[0].outputHook[0]  packet/sec  ETV
vector 405  University.whttpStudents[3].wlan[0].outputHook[0]  "thruput (bit/sec)"  ETV
vector 406  University.whttpStudents[3].wlan[0].outputHook[0]  packet/sec  ETV
vector 246  University.whttpStudents[10].tcpApp[0]  numActiveSessions:vector  ETV
attr interpolationmode  sample-hold
attr source  sum(connect)
attr title  "number of active sessions, vector"
vector 475  University.whttpStudents[10].wlan[0].outputHook[0]  "thruput (bit/sec)"  ETV
vector 476  University.whttpStudents[10].wlan[0].outputHook[0]  packet/sec  ETV
vector 138  University.whttpStudents[1].tcpApp[0]  numActiveSessions:vector  ETV
attr interpolationmode  sample-hold
attr source  sum(connect)
attr title  "number of active sessions, vector"
vector 126  University.whttpStudents[0].tcpApp[0]  numActiveSessions:vector  ETV
attr interpolationmode  sample-hold
attr source  sum(connect)
attr title  "number of active sessions, vector"
vector 124  University.whttpStudents[0].tcpApp[0]  sentPk:vector(packetBytes)  ETV
attr interpolationmode  none
attr source  sentPk
attr title  "packets sent, vector(packetBytes)"
vector 94  University.Server.tcpApp[0]  rcvdPk:vector(packetBytes)  ETV
attr interpolationmode  none
attr source  rcvdPk
attr title  "packets received, vector(packetBytes)"
vector 96  University.Server.tcpApp[0]  endToEndDelay:vector  ETV
attr interpolationmode  none
attr source  messageAge(rcvdPk)
attr title  "end-to-end delay, vector"
attr unit  s
vector 95  University.Server.tcpApp[0]  sentPk:vector(packetBytes)  ETV
attr interpolationmode  none
attr source  sentPk
attr title  "packets sent, vector(packetBytes)"
vector 123  University.whttpStudents[0].tcpApp[0]  rcvdPk:vector(packetBytes)  ETV
attr interpolationmode  none
attr source  rcvdPk
attr title  "packets received, vector(packetBytes)"
vector 125  University.whttpStudents[0].tcpApp[0]  endToEndDelay:vector  ETV
attr interpolationmode  none
attr source  messageAge(rcvdPk)
attr title  "end-to-end delay, vector"
attr unit  s
vector 385  University.whttpStudents[1].wlan[0].outputHook[0]  "thruput (bit/sec)"  ETV
vector 386  University.whttpStudents[1].wlan[0].outputHook[0]  packet/sec  ETV
vector 310  University.whostFTP.tcpApp[0]  numActiveSessions:vector  ETV
attr interpolationmode  sample-hold
attr source  sum(connect)
attr title  "number of active sessions, vector"
vector 174  University.whttpStudents[4].tcpApp[0]  numActiveSessions:vector  ETV
attr interpolationmode  sample-hold
attr source  sum(connect)
attr title  "number of active sessions, vector"
vector 282  University.whttpStudents[13].tcpApp[0]  numActiveSessions:vector  ETV
attr interpolationmode  sample-hold
attr source  sum(connect)
attr title  "number of active sessions, vector"
vector 375  University.whttpStudents[0].wlan[0].outputHook[0]  "thruput (bit/sec)"  ETV
vector 376  University.whttpStudents[0].wlan[0].outputHook[0]  packet/sec  ETV
vector 343  University.mainR.ppp[0].outputHook[0]  "thruput (bit/sec)"  ETV
vector 344  University.mainR.ppp[0].outputHook[0]  packet/sec  ETV
vector 341  University.remoteR.ppp[0].inputHook[0]  "thruput (bit/sec)"  ETV
vector 342  University.remoteR.ppp[0].inputHook[0]  packet/sec  ETV
vector 270  University.whttpStudents[12].tcpApp[0]  numActiveSessions:vector  ETV
attr interpolationmode  sample-hold
attr source  sum(connect)
attr title  "number of active sessions, vector"
vector 162  University.whttpStudents[3].tcpApp[0]  numActiveSessions:vector  ETV
attr interpolationmode  sample-hold
attr source  sum(connect)
attr title  "number of active sessions, vector"
vector 258  University.whttpStudents[11].tcpApp[0]  numActiveSessions:vector  ETV
attr interpolationmode  sample-hold
attr source  sum(connect)
attr title  "number of active sessions, vector"
vector 150  University.whttpStudents[2].tcpApp[0]  numActiveSessions:vector  ETV
attr interpolationmode  sample-hold
attr source  sum(connect)
attr title  "number of active sessions, vector"
vector 210  University.whttpStudents[7].tcpApp[0]  numActiveSessions:vector  ETV
attr interpolationmode  sample-hold
attr source  sum(connect)
attr title  "number of active sessions, vector"
vector 234  University.whttpStudents[9].tcpApp[0]  numActiveSessions:vector  ETV
attr interpolationmode  sample-hold
attr source  sum(connect)
attr title  "number of active sessions, vector"
75	12982 4580439 50473 85999837 5.007976158898 5294.767976158898 132244 1400 1400 185141600 259198240000
76	4593421 4580904 50474 85999609 5.031196751827 5294.751196751827 132244 1400 1400 185141600 259198240000
77	9174325 5774644 50473 85999837 5.007976158898 5294.767976158898 132244 0.01634561865 0.165461425355 2169.3936325362 35.710349529548
94	14948969 9541 346100 85998189 57.448642838914 5294.686311053246 302 1 1 302 302
95	14958510 11099 346100 85998189 57.448642838914 5294.686311053246 302 1948 4855117 241107136 3.7872620739169e+14
96	14969609 13467 346100 85998189 57.448642838914 5294.686311053246 302 0.013190995611 0.014514800733 3.997372089888 0.052915408706821
123	14983076 11367 395492 85924180 57.751386234062 5281.630518209042 301 1948 4855117 240877086 3.7867328438919e+14
124	14994443 9823 345571 85997736 57.435388843303 5294.673093057635 302 1 1 302 302
125	15004266 13701 395492 85924180 57.751386234062 5281.630518209042 301 0.063658096367 7.725830497329 775.56061272875 3501.219932103
126	15017967 19648 344761 85997263 57.403442122363 5294.642740362207 603 0 1 302 302
138	15037615 1973 343270 84934813 57.243546055816 5217.511479410288 59 1 59 1770 70210
150	15039588 1973 1236622 85926881 97.234426718072 5281.938289145817 59 1 59 1770 70210
162	15041561 1970 789710 85960919 86.338314433487 5288.078527935745 59 1 59 1770 70210
174	15043531 1940 501332 85145227 76.936904805436 5234.30383395624 58 1 58 1711 66729
186	15045471 1873 119671 85189767 17.055463413041 5242.263215262748 56 1 56 1596 60116
198	15047344 1998 55869 85494413 6.025964414007 5270.595027870929 60 1 60 1830 73810
210	15049342 1910 1298604 85588020 108.339683891692 5273.046890053121 57 1 57 1653 63365
222	15051252 2036 117288 84974597 16.735641281699 5224.628455208099 61 1 61 1891 77531
234	15053288 1901 1881882 85018722 127.032182662306 5231.340140428353 57 1 57 1653 63365
246	15055189 1998 246030 84752842 39.7881375716 5214.759417142113 60 1 60 1830 73810
258	15057187 1935 857393 85153996 89.86416469258 5235.811510393024 58 1 58 1711 66729
270	15059122 1901 734547 83895217 84.932487228408 5173.775691937209 57 1 57 1653 63365
282	15061023 1970 526307 84428952 81.40281026719 5208.387821490904 59 1 59 1770 70210
292	15062993 4713148 50481 85999627 5.031630540248 5294.751630540248 132244 1400 1400 185141600 259198240000
310	19776141 1437 490771 85232978 75 5250 70 1 70 2485 116795
331	19777578 59973 117374 85997690 6.02603625588 5281.560871572233 1290 4.4211499075481 11339254.557983 1633799587.0564 7.7990491826754e+15
332	19837551 60376 117374 85997690 6.02603625588 5281.560871572233 1290 0.019737276372983 945.46091493987 137092.8272396 54623155.486275
333	19897927 202654 56545 85994215 5.032019492232 5293.072019492232 5283 275771.63807162 588134.99975308 1563580222.5516 4.6833505720855e+14
334	20100581 183461 56545 85994215 5.032019492232 5293.072019492232 5283 25 936.3488452327 302489.15656849 70950346.102185
339	20284042 202656 56547 85994217 5.032019492232 5293.072019492232 5283 275771.63807162 588134.99975308 1563448874.7333 4.6825633500809e+14
340	20486698 183465 56547 85994217 5.032019492232 5293.072019492232 5283 24.960436610512 936.3488452327 301902.78237983 70869718.541653
341	20670163 43423 541516 85997688 57.435312860547 5281.560871572233 934 26.800761505587 11339254.557983 1590166703.6663 7.7724372324614e+15
342	20713586 43495 541516 85997688 57.435312860547 5281.560871572233 934 0.062327775077459 945.46091493987 133106.61273748 54385993.978512
343	20757081 43432 541349 85997521 57.425276193881 5281.549866905567 934 26.800767491262 11154915.621511 1824325772.4322 1.0606013144868e+16
344	20800513 43512 541349 85997521 57.425276193881 5281.549866905567 934 0.062326521622835 930.09912872856 152638.87324268 74158629.648877
345	20844025 202690 56632 85994286 5.042976158898 5293.082976158898 5283 278664.47148655 587251.45272067 1563447548.3672 4.6824955619409e+14
346	21046715 183500 56632 85994286 5.042976158898 5293.082976158898 5283 24.960436610512 934.71227565312 301900.5497551 70865405.971733
347	21230215 199078 56606 85993817 5.036196751827 5293.036196751827 5289 285376 296800 1569763776 4.6590262858138e+14
348	21429293 177922 56606 85993817 5.036196751827 5293.036196751827 5289 49 50 264449 13222401
349	21607215 199078 56603 85993814 5.036196751827 5293.036196751827 5289 285600 285600 1510538400 4.3140976704e+14
350	21806293 177922 56603 85993814 5.036196751827 5293.036196751827 5289 25 25 132225 3305625
351	21984215 130787 64578 85994067 6.037670986292 5290.948401635545 2822 115.13828619294 291730.42555185 50489140.821281 5664181747689.7
352	22115002 131155 64578 85994067 6.037670986292 5290.948401635545 2822 0.28012049671184 911.65757984952 155301.23959368 55001781.870744
353	22246157 130126 64760 85994087 6.047798542876 5290.958529192129 2807 65.73494322838 11092844.794214 1982686885.1944 1.0512427798392e+16
354	22376283 130772 64760 85994087 6.047798542876 5290.958529192129 2807 0.1867469978079 930.74935736353 170762.67489143 74111092.533236
363	22507055 199078 56443 85993654 5.031196751827 5293.031196751827 5289 285600 285600 1510538400 4.3140976704e+14
364	22706133 177922 56443 85993654 5.031196751827 5293.031196751827 5289 25 25 132225 3305625
365	22884055 199078 55853 85993635 5.001196751827 5293.001196751827 5289 285376 296800 1569763776 4.6590262858138e+14
366	23083133 177922 55853 85993635 5.001196751827 5293.001196751827 5289 49 50 264449 13222401
367	23261055 130112 64587 85994076 6.040056693636 5290.950787342889 2807 65.73494322838 11092844.794214 1982573617.4965 1.0511243887149e+16
368	23391167 130762 64587 85994076 6.040056693636 5290.950787342889 2807 0.1867469978079 930.74935736353 170753.2149556 74102886.607681
369	23521929 130932 64583 85994072 6.040056693636 5290.950787342889 2822 115.1382596793 291730.42555185 50489152.437738 5664185240343.5
370	23652861 131286 64583 85994072 6.040056693636 5290.950787342889 2822 0.28012049671184 911.65757984952 155301.27577328 55001815.762995
375	23784147 43748 541173 85997266 57.403442122363 5281.529202672894 941 13.642064958929 291222.77011199 42572528.39609 5536274122106.6
376	23827895 43803 541173 85997266 57.403442122363 5281.529202672894 941 0.042631452996654 910.07115659998 133003.01508859 54035007.048014
377	23871698 59929 117495 85997732 6.027124458636 5281.561279714988 1290 4.4212382371055 10914660.200637 1624884189.0494 7.6757981828134e+15
378	23931627 60337 117495 85997732 6.027124458636 5281.561279714988 1290 0.019737670701364 910.07115659998 136348.08904812 53765299.295801
385	23991964 10913 410123 85359539 57.243546055816 5238.511479410288 294 4.6755060044774 202.66666666667 15731.156972781 1561667.6540459
386	24002877 14167 410123 85359539 57.243546055816 5238.511479410288 294 0.01217579688666 0.66666666666667 42.869000334794 12.420510598434
387	24017044 22223 117507 85588242 6.027124461079 5269.629615241601 478 1.8661824983697 549.99149050717 35322.644043148 5796126.0164214
388	24039267 22808 117507 85588242 6.027124461079 5269.629615241601 478 0.008331171867722 2.4553191540499 157.69037519262 115.51590434513
395	24062075 11046 100047 85976418 7.595245311224 5284.938289145817 296 4.9364316969178 202.66666666667 15910.080687306 1609498.6209936
396	24073121 14250 100047 85976418 7.595245311224 5284.938289145817 296 0.01285529087739 0.66666666666667 43.55957319384 13.040320291421
397	24087371 22224 117501 85588236 6.027124458942 5269.629615239464 478 1.8661824983697 549.99149050717 35284.270992316 5791678.2472854
398	24109595 22802 117501 85588236 6.027124458942 5269.629615239464 478 0.008331171867722 2.4553191540499 157.51906692998 115.42726098703
405	24132397 10975 148773 85977493 10.121679726941 5288.078527935745 294 4.1801161098852 202.66666666667 16094.833363436 1714193.9994572
406	24143372 14139 148773 85977493 10.121679726941 5288.078527935745 294 0.010885719036159 0.66666666666667 44.605492804276 14.507418579179
407	24157511 22222 117533 85588272 6.027124473449 5269.629615253971 478 1.8661824983697 549.96617158576 35284.230863554 5791641.5085197
408	24179733 22801 117533 85588272 6.027124473449 5269.629615253971 478 0.008331171867722 2.4552061231507 157.51888778372 115.42652878906
415	24202534 10884 143424 85860572 9.240574314044 5255.30383395624 292 2.4590488454855 202.66666666667 15793.874556362 1633827.72137
416	24213418 14065 143424 85860572 9.240574314044 5255.30383395624 292 0.0064037730351184 0.66666666666667 43.516099175162 13.532854958201
417	24227483 22225 117513 85588248 6.027124462237 5269.629615242759 478 1.8661824983697 549.99149050717 35284.3629596 5791733.6491803
418	24249708 22806 117513 85588248 6.027124462237 5269.629615242759 478 0.008331171867722 2.4553191540499 157.51947749821 115.42836513832
425	24272514 10456 136657 85956235 17.055463413041 5263.263215262748 279 3.7753095815491 202.66666666667 15388.371783723 1657834.8500174
426	24282970 13442 136657 85956235 17.055463413041 5263.263215262748 279 0.0098315353686174 0.66666666666667 42.819568342612 14.164867100454
427	24296412 22220 117477 85588216 6.027124447732 5269.629615228254 478 1.8661824983697 549.99149050717 35322.6368613 5796118.2127966
428	24318632 22804 117477 85588216 6.027124447732 5269.629615228254 478 0.008331171867722 2.4553191540499 157.6903431308 115.51574882009
435	24341436 11085 73637 85980476 6.025964414007 5279.595027870929 298 4.9324102477924 202.66666666667 16348.187438816 1736028.29752
436	24352521 14325 73637 85980476 6.025964414007 5279.595027870929 298 0.012844818353626 0.66666666666667 45.197405992992 14.630010663407
437	24366846 22220 117545 85588284 6.027244477753 5269.629615258275 478 1.8661824983697 549.99149050717 35284.372204364 5791744.8071335
438	24389066 22800 117545 85588284 6.027244477753 5269.629615258275 478 0.008331171867722 2.4553191540499 157.51951876948 115.42858751462
445	24411866 10673 147948 85993835 10.023160340613 5282.046890053121 286 3.6636993390401 202.66666666667 15404.00165809 1584734.0362776
446	24422539 13789 147948 85993835 10.023160340613 5282.046890053121 286 0.0095408836954168 0.66666666666667 42.309196869503 13.021138834463
447	24436328 22221 117483 85588333 6.027124456561 5269.629615237083 478 1.8661824983697 549.99149050717 35284.199440464 5791633.5883093
448	24458549 22799 117483 85588333 6.027124456561 5269.629615237083 478 0.008331171867722 2.4553191540499 157.51874750207 115.42637094047
455	24481348 11300 134673 85398750 16.735641281699 5245.628455208099 304 4.0217489356641 202.66666666667 16523.515845717 1703682.577776
456	24492648 14625 134673 85398750 16.735641281699 5245.628455208099 304 0.010473304519959 0.66666666666667 45.448830954936 14.042667876288
457	24507273 22225 117615 85588260 6.027124464183 5269.629726244705 478 1.8661824983697 549.99149050717 35284.26187693 5791676.4746929
458	24529498 22797 117615 85588260 6.027124464183 5269.629726244705 478 0.008331171867722 2.4553191540499 157.5190262363 115.42722565954
465	24552295 10687 94060 85625114 6.600251992862 5252.340140428353 288 4.4103284535699 202.66666666667 15489.000635463 1586194.3253497
466	24562982 13833 94060 85625114 6.600251992862 5252.340140428353 288 0.011485230347838 0.66666666666667 42.531795259154 13.010987578918
467	24576815 22204 117539 85588278 6.027124476116 5269.629615256638 478 1.8661824983697 549.99149050717 35284.041289451 5791565.6225565
468	24599019 22774 117539 85588278 6.027124476116 5269.629615256638 478 0.008331171867722 2.4553191540499 157.51804147076 115.42501639343
475	24621793 11082 262815 85344235 39.7881375716 5235.759417142113 299 4.8706026728301 202.66666666667 16353.087825441 1720035.9695041
476	24632875 14355 262815 85344235 39.7881375716 5235.759417142113 299 0.012683861127162 0.66666666666667 45.169519501278 14.411312486638
477	24647230 22209 117489 85588224 6.02712445664 5269.629615237162 478 1.8661824983697 549.99149050717 35284.268144743 5791658.619462
478	24669439 22788 117489 85588224 6.02712445664 5269.629615237162 478 0.008331171867722 2.4553191540499 157.5190542176 115.42686980752
485	24692227 10886 144328 85899990 9.378216843666 5256.811510393024 292 3.6447756760716 202.66666666667 15832.169323454 1650364.1361417
486	24703113 14040 144328 85899990 9.378216843666 5256.811510393024 292 0.0094916033231031 0.66666666666667 43.689322955093 13.756132088548
487	24717153 22222 117551 85588290 6.027124478719 5269.629615259241 478 1.8661824983697 549.99149050717 35284.166182327 5791604.2404231
488	24739375 22799 117551 85588290 6.027124478719 5269.629615259241 478 0.008331171867722 2.4553191540499 157.51859902825 115.4257860416
495	24762174 10708 98793 84942116 7.413433084399 5194.775691937209 288 4.7368427512227 202.66666666667 15575.852333639 1627448.9669087
496	24772882 13842 98793 84942116 7.413433084399 5194.775691937209 288 0.012335527997976 0.66666666666667 42.913894932261 13.56801172356
497	24786724 22226 117519 85588254 6.027124463903 5269.629615244425 478 1.8661824983697 549.99149050717 35284.307996784 5791706.8177849
498	24808950 22794 117519 85588254 6.027124463903 5269.629615244425 478 0.008331171867722 2.4553191540499 157.5192321285 115.42783039272
505	24831744 11042 95984 85253803 6.926372947043 5229.387821490904 298 4.8552359798531 202.66666666667 16003.766456077 1630398.1082703
506	24842786 14331 95984 85253803 6.926372947043 5229.387821490904 298 0.012643843697534 0.66666666666667 43.868934809333 13.312925393828
507	24857117 22228 117557 85588296 6.027124483972 5269.629615264494 478 1.8661824983697 549.99149050717 35322.474832993 5796041.6666815
508	24879345 22790 117557 85588296 6.027124483972 5269.629615264494 478 0.008331171867722 2.4553191540499 157.68961979015 115.51422326773
515	24902135 199078 56450 85993661 5.031630540248 5293.031630540248 5289 285600 285824 1510547360 4.3141488699904e+14
516	25101213 177922 56450 85993661 5.031630540248 5293.031630540248 5289 25 26 132265 3307665
517	25279135 22200 117527 85588266 6.027124467864 5269.629615248386 478 1.8661814722361 550.02592798167 35284.35132589 5791734.9340715
518	25301335 22773 117527 85588266 6.027124467864 5269.629615248386 478 0.0083311672867685 2.4554728927753 157.51942556201 115.428390746
525	25324108 7838 141976 85555849 9 5259 351 12.8 202.66666666667 19852.266666667 2228271.9288889
526	25331946 12369 141976 85555849 9 5259 351 0.033333333333333 0.66666666666667 55.65 19.765
527	25344315 22193 117563 85588302 6.027124485846 5269.629615266368 478 1.8661824983697 549.99149050717 35284.237755656 5791652.9216441
528	25366508 22769 117563 85588302 6.027124485846 5269.629615266368 478 0.008331171867722 2.4553191540499 157.51891855204 115.42675625088
535	25389277 59976 117400 85997697 6.02604206588 5281.560993702233 1290 10.105485471054 11475400.929734 1653639741.9657 7.9886058522521e+15
536	25449253 60387 117400 85997697 6.02604206588 5281.560993702233 1290 0.019737276310653 945.46091493987 137096.33069016 54624877.811499
537	25509640 202663 56490 85994160 5.031904562232 5293.071904562232 5283 276354.97347425 762925.44715686 1596069536.8497 4.963632530435e+14
538	25712303 183482 56490 85994160 5.031904562232 5293.071904562232 5283 25 936.3488452327 302493.50614979 70951852.136871
545	25895785 202663 56492 85994162 5.031904562232 5293.071904562232 5283 276354.97347425 762925.44715686 1596069536.8497 4.963632530435e+14
546	26098448 183482 56492 85994162 5.031904562232 5293.071904562232 5283 25 936.3488452327 302493.50614979 70951852.136871
547	26281930 59976 117398 85997695 6.02604206588 5281.560993702233 1290 10.105485471054 11475400.929734 1653639741.9657 7.9886058522521e+15
548	26341906 60387 117398 85997695 6.02604206588 5281.560993702233 1290 0.019737276310653 945.46091493987 137096.33069016 54624877.811499
75	26402293 96421 86003323 87019563 5294.807976158898 5404.967976158898 2755 1400 1400 3857000 5399800000
76	26498714 96460 86001154 87019564 5294.791196751827 5404.991196751827 2756 1400 1400 3858400 5401760000
77	26595174 121249 86003323 87019563 5294.807976158898 5404.967976158898 2755 0.01634561865 0.02278099328 45.087498416366 0.73806102989504
94	26716423 32 86161538 86161538 5314.436507027181 5314.436507027181 1 1 1 1 1
95	26716455 38 86161538 86161538 5314.436507027181 5314.436507027181 1 1510702 1510702 1510702 2282220532804
96	26716493 45 86161538 86161538 5314.436507027181 5314.436507027181 1 0.013253995611 0.013253995611 0.013253995611 0.00017566839965641
123	26716538 76 86051689 86540333 5294.999912593951 5319.60630481754 2 230050 1510702 1740752 2335143535304
124	26716614 32 86160935 86160935 5314.42325303157 5314.42325303157 1 1 1 1 1
125	26716646 90 86051689 86540333 5294.999912593951 5319.60630481754 2 0.326819536316 5.18305178597 5.509871322286 26.970836825365
126	26716736 98 86051689 86540333 5294.999912593951 5319.60630481754 3 0 1 1 1
138	26716834 34 86404146 86404146 5317.697454119967 5317.697454119967 1 60 60 60 3600
150	26716868 34 86764826 86764826 5359.690327458049 5359.690327458049 1 60 60 60 3600