file 28056433 1471641567                                        
version 2
run _14to17off-1-20160819-23:12:02-4955
attr configname _14to17off
attr datetime 20160819-23:12:02
attr experiment _14to17off
attr inifile omnetpp.ini
attr iterationvars $0=14
attr iterationvars2 "$0=14, $repetition=1"
attr measurement $0=14
attr network University
attr processid 4955
attr repetition 1
attr replication #1
attr resultdir results
attr runnumber 1
attr seedset 1

vector 292  University.whostVideoConf.udpApp[0]  sentPk:vector(packetBytes)  ETV
attr interpolationmode  none
attr source  sentPk
attr title  "packets sent, vector(packetBytes)"
vector 76  University.profLaptop.udpApp[0]  sentPk:vector(packetBytes)  ETV
attr interpolationmode  none
attr source  sentPk
attr title  "packets sent, vector(packetBytes)"
vector 75  University.profLaptop.udpApp[0]  rcvdPk:vector(packetBytes)  ETV
attr interpolationmode  none
attr source  rcvdPk
attr title  "packets received, vector(packetBytes)"
vector 77  University.profLaptop.udpApp[0]  rcvdPkLifetime:vector  ETV
attr interpolationmode  none
attr source  messageAge(rcvdPk)
attr title  "received packet lifetime, vector"
attr unit  s
vector 282  University.whttpStudents[13].tcpApp[0]  numActiveSessions:vector  ETV
attr interpolationmode  sample-hold
attr source  sum(connect)
attr title  "number of active sessions, vector"
vector 515  University.whostVideoConf.wlan[0].outputHook[0]  "thruput (bit/sec)"  ETV
vector 516  University.whostVideoConf.wlan[0].outputHook[0]  packet/sec  ETV
vector 537  University.accessPoint.wlan[0].inputHook[0]  "thruput (bit/sec)"  ETV
vector 538  University.accessPoint.wlan[0].inputHook[0]  packet/sec  ETV
vector 545  University.accessPoint.eth[0].outputHook[0]  "thruput (bit/sec)"  ETV
vector 546  University.accessPoint.eth[0].outputHook[0]  packet/sec  ETV
vector 333  University.remoteR.eth[0].inputHook[0]  "thruput (bit/sec)"  ETV
vector 334  University.remoteR.eth[0].inputHook[0]  packet/sec  ETV
vector 339  University.remoteR.ppp[0].outputHook[0]  "thruput (bit/sec)"  ETV
vector 340  University.remoteR.ppp[0].outputHook[0]  packet/sec  ETV
vector 363  University.profLaptop.ppp[0].outputHook[0]  "thruput (bit/sec)"  ETV
vector 364  University.profLaptop.ppp[0].outputHook[0]  packet/sec  ETV
vector 345  University.mainR.ppp[0].inputHook[0]  "thruput (bit/sec)"  ETV
vector 346  University.mainR.ppp[0].inputHook[0]  packet/sec  ETV
vector 349  University.mainR.ppp[1].inputHook[0]  "thruput (bit/sec)"  ETV
vector 350  University.mainR.ppp[1].inputHook[0]  packet/sec  ETV
vector 347  University.mainR.ppp[1].outputHook[0]  "thruput (bit/sec)"  ETV
vector 348  University.mainR.ppp[1].outputHook[0]  packet/sec  ETV
vector 365  University.profLaptop.ppp[0].inputHook[0]  "thruput (bit/sec)"  ETV
vector 366  University.profLaptop.ppp[0].inputHook[0]  packet/sec  ETV
vector 331  University.remoteR.eth[0].outputHook[0]  "thruput (bit/sec)"  ETV
vector 332  University.remoteR.eth[0].outputHook[0]  packet/sec  ETV
vector 547  University.accessPoint.eth[0].inputHook[0]  "thruput (bit/sec)"  ETV
vector 548  University.accessPoint.eth[0].inputHook[0]  packet/sec  ETV
vector 535  University.accessPoint.wlan[0].outputHook[0]  "thruput (bit/sec)"  ETV
vector 536  University.accessPoint.wlan[0].outputHook[0]  packet/sec  ETV
vector 377  University.whttpStudents[0].wlan[0].inputHook[0]  "thruput (bit/sec)"  ETV
vector 378  University.whttpStudents[0].wlan[0].inputHook[0]  packet/sec  ETV
vector 375  University.whttpStudents[0].wlan[0].outputHook[0]  "thruput (bit/sec)"  ETV
vector 376  University.whttpStudents[0].wlan[0].outputHook[0]  packet/sec  ETV
vector 351  University.mainR.ppp[2].outputHook[0]  "thruput (bit/sec)"  ETV
vector 352  University.mainR.ppp[2].outputHook[0]  packet/sec  ETV
vector 369  University.Server.ppp[0].inputHook[0]  "thruput (bit/sec)"  ETV
vector 370  University.Server.ppp[0].inputHook[0]  packet/sec  ETV
vector 367  University.Server.ppp[0].outputHook[0]  "thruput (bit/sec)"  ETV
vector 368  University.Server.ppp[0].outputHook[0]  packet/sec  ETV
vector 162  University.whttpStudents[3].tcpApp[0]  numActiveSessions:vector  ETV
attr interpolationmode  sample-hold
attr source  sum(connect)
attr title  "number of active sessions, vector"
vector 353  University.mainR.ppp[2].inputHook[0]  "thruput (bit/sec)"  ETV
vector 354  University.mainR.ppp[2].inputHook[0]  packet/sec  ETV
vector 343  University.mainR.ppp[0].outputHook[0]  "thruput (bit/sec)"  ETV
vector 344  University.mainR.ppp[0].outputHook[0]  packet/sec  ETV
vector 341  University.remoteR.ppp[0].inputHook[0]  "thruput (bit/sec)"  ETV
vector 342  University.remoteR.ppp[0].inputHook[0]  packet/sec  ETV
vector 150  University.whttpStudents[2].tcpApp[0]  numActiveSessions:vector  ETV
attr interpolationmode  sample-hold
attr source  sum(connect)
attr title  "number of active sessions, vector"
vector 477  University.whttpStudents[10].wlan[0].inputHook[0]  "thruput (bit/sec)"  ETV
vector 478  University.whttpStudents[10].wlan[0].inputHook[0]  packet/sec  ETV
vector 417  University.whttpStudents[4].wlan[0].inputHook[0]  "thruput (bit/sec)"  ETV
vector 418  University.whttpStudents[4].wlan[0].inputHook[0]  packet/sec  ETV
vector 437  University.whttpStudents[6].wlan[0].inputHook[0]  "thruput (bit/sec)"  ETV
vector 438  University.whttpStudents[6].wlan[0].inputHook[0]  packet/sec  ETV
vector 447  University.whttpStudents[7].wlan[0].inputHook[0]  "thruput (bit/sec)"  ETV
vector 448  University.whttpStudents[7].wlan[0].inputHook[0]  packet/sec  ETV
vector 407  University.whttpStudents[3].wlan[0].inputHook[0]  "thruput (bit/sec)"  ETV
vector 408  University.whttpStudents[3].wlan[0].inputHook[0]  packet/sec  ETV
vector 427  University.whttpStudents[5].wlan[0].inputHook[0]  "thruput (bit/sec)"  ETV
vector 428  University.whttpStudents[5].wlan[0].inputHook[0]  packet/sec  ETV
vector 497  University.whttpStudents[12].wlan[0].inputHook[0]  "thruput (bit/sec)"  ETV
vector 498  University.whttpStudents[12].wlan[0].inputHook[0]  packet/sec  ETV
vector 467  University.whttpStudents[9].wlan[0].inputHook[0]  "thruput (bit/sec)"  ETV
vector 468  University.whttpStudents[9].wlan[0].inputHook[0]  packet/sec  ETV
vector 517  University.whostVideoConf.wlan[0].inputHook[0]  "thruput (bit/sec)"  ETV
vector 518  University.whostVideoConf.wlan[0].inputHook[0]  packet/sec  ETV
vector 527  University.whostFTP.wlan[0].inputHook[0]  "thruput (bit/sec)"  ETV
vector 528  University.whostFTP.wlan[0].inputHook[0]  packet/sec  ETV
vector 387  University.whttpStudents[1].wlan[0].inputHook[0]  "thruput (bit/sec)"  ETV
vector 388  University.whttpStudents[1].wlan[0].inputHook[0]  packet/sec  ETV
vector 457  University.whttpStudents[8].wlan[0].inputHook[0]  "thruput (bit/sec)"  ETV
vector 458  University.whttpStudents[8].wlan[0].inputHook[0]  packet/sec  ETV
vector 507  University.whttpStudents[13].wlan[0].inputHook[0]  "thruput (bit/sec)"  ETV
vector 508  University.whttpStudents[13].wlan[0].inputHook[0]  packet/sec  ETV
vector 487  University.whttpStudents[11].wlan[0].inputHook[0]  "thruput (bit/sec)"  ETV
vector 488  University.whttpStudents[11].wlan[0].inputHook[0]  packet/sec  ETV
vector 397  University.whttpStudents[2].wlan[0].inputHook[0]  "thruput (bit/sec)"  ETV
vector 398  University.whttpStudents[2].wlan[0].inputHook[0]  packet/sec  ETV
vector 234  University.whttpStudents[9].tcpApp[0]  numActiveSessions:vector  ETV
attr interpolationmode  sample-hold
attr source  sum(connect)
attr title  "number of active sessions, vector"
vector 186  University.whttpStudents[5].tcpApp[0]  numActiveSessions:vector  ETV
attr interpolationmode  sample-hold
attr source  sum(connect)
attr title  "number of active sessions, vector"
vector 246  University.whttpStudents[10].tcpApp[0]  numActiveSessions:vector  ETV
attr interpolationmode  sample-hold
attr source  sum(connect)
attr title  "number of active sessions, vector"
vector 505  University.whttpStudents[13].wlan[0].outputHook[0]  "thruput (bit/sec)"  ETV
vector 506  University.whttpStudents[13].wlan[0].outputHook[0]  packet/sec  ETV
vector 405  University.whttpStudents[3].wlan[0].outputHook[0]  "thruput (bit/sec)"  ETV
vector 406  University.whttpStudents[3].wlan[0].outputHook[0]  packet/sec  ETV
vector 395  University.whttpStudents[2].wlan[0].outputHook[0]  "thruput (bit/sec)"  ETV
vector 396  University.whttpStudents[2].wlan[0].outputHook[0]  packet/sec  ETV
vector 465  University.whttpStudents[9].wlan[0].outputHook[0]  "thruput (bit/sec)"  ETV
vector 466  University.whttpStudents[9].wlan[0].outputHook[0]  packet/sec  ETV
vector 425  University.whttpStudents[5].wlan[0].outputHook[0]  "thruput (bit/sec)"  ETV
vector 426  University.whttpStudents[5].wlan[0].outputHook[0]  packet/sec  ETV
vector 198  University.whttpStudents[6].tcpApp[0]  numActiveSessions:vector  ETV
attr interpolationmode  sample-hold
attr source  sum(connect)
attr title  "number of active sessions, vector"
vector 385  University.whttpStudents[1].wlan[0].outputHook[0]  "thruput (bit/sec)"  ETV
vector 386  University.whttpStudents[1].wlan[0].outputHook[0]  packet/sec  ETV
vector 475  University.whttpStudents[10].wlan[0].outputHook[0]  "thruput (bit/sec)"  ETV
vector 476  University.whttpStudents[10].wlan[0].outputHook[0]  packet/sec  ETV
vector 222  University.whttpStudents[8].tcpApp[0]  numActiveSessions:vector  ETV
attr interpolationmode  sample-hold
attr source  sum(connect)
attr title  "number of active sessions, vector"
vector 485  University.whttpStudents[11].wlan[0].outputHook[0]  "thruput (bit/sec)"  ETV
vector 486  University.whttpStudents[11].wlan[0].outputHook[0]  packet/sec  ETV
vector 435  University.whttpStudents[6].wlan[0].outputHook[0]  "thruput (bit/sec)"  ETV
vector 436  University.whttpStudents[6].wlan[0].outputHook[0]  packet/sec  ETV
vector 455  University.whttpStudents[8].wlan[0].outputHook[0]  "thruput (bit/sec)"  ETV
vector 456  University.whttpStudents[8].wlan[0].outputHook[0]  packet/sec  ETV
vector 270  University.whttpStudents[12].tcpApp[0]  numActiveSessions:vector  ETV
attr interpolationmode  sample-hold
attr source  sum(connect)
attr title  "number of active sessions, vector"
vector 525  University.whostFTP.wlan[0].outputHook[0]  "thruput (bit/sec)"  ETV
vector 526  University.whostFTP.wlan[0].outputHook[0]  packet/sec  ETV
vector 495  University.whttpStudents[12].wlan[0].outputHook[0]  "thruput (bit/sec)"  ETV
vector 496  University.whttpStudents[12].wlan[0].outputHook[0]  packet/sec  ETV
vector 210  University.whttpStudents[7].tcpApp[0]  numActiveSessions:vector  ETV
attr interpolationmode  sample-hold
attr source  sum(connect)
attr title  "number of active sessions, vector"
vector 445  University.whttpStudents[7].wlan[0].outputHook[0]  "thruput (bit/sec)"  ETV
vector 446  University.whttpStudents[7].wlan[0].outputHook[0]  packet/sec  ETV
vector 174  University.whttpStudents[4].tcpApp[0]  numActiveSessions:vector  ETV
attr interpolationmode  sample-hold
attr source  sum(connect)
attr title  "number of active sessions, vector"
vector 123  University.whttpStudents[0].tcpApp[0]  rcvdPk:vector(packetBytes)  ETV
attr interpolationmode  none
attr source  rcvdPk
attr title  "packets received, vector(packetBytes)"
vector 125  University.whttpStudents[0].tcpApp[0]  endToEndDelay:vector  ETV
attr interpolationmode  none
attr source  messageAge(rcvdPk)
attr title  "end-to-end delay, vector"
attr unit  s
vector 126  University.whttpStudents[0].tcpApp[0]  numActiveSessions:vector  ETV
attr interpolationmode  sample-hold
attr source  sum(connect)
attr title  "number of active sessions, vector"
vector 415  University.whttpStudents[4].wlan[0].outputHook[0]  "thruput (bit/sec)"  ETV
vector 416  University.whttpStudents[4].wlan[0].outputHook[0]  packet/sec  ETV
vector 124  University.whttpStudents[0].tcpApp[0]  sentPk:vector(packetBytes)  ETV
attr interpolationmode  none
attr source  sentPk
attr title  "packets sent, vector(packetBytes)"
vector 94  University.Server.tcpApp[0]  rcvdPk:vector(packetBytes)  ETV
attr interpolationmode  none
attr source  rcvdPk
attr title  "packets received, vector(packetBytes)"
vector 96  University.Server.tcpApp[0]  endToEndDelay:vector  ETV
attr interpolationmode  none
attr source  messageAge(rcvdPk)
attr title  "end-to-end delay, vector"
attr unit  s
vector 95  University.Server.tcpApp[0]  sentPk:vector(packetBytes)  ETV
attr interpolationmode  none
attr source  sentPk
attr title  "packets sent, vector(packetBytes)"
vector 310  University.whostFTP.tcpApp[0]  numActiveSessions:vector  ETV
attr interpolationmode  sample-hold
attr source  sum(connect)
attr title  "number of active sessions, vector"
vector 258  University.whttpStudents[11].tcpApp[0]  numActiveSessions:vector  ETV
attr interpolationmode  sample-hold
attr source  sum(connect)
attr title  "number of active sessions, vector"
vector 138  University.whttpStudents[1].tcpApp[0]  numActiveSessions:vector  ETV
attr interpolationmode  sample-hold
attr source  sum(connect)
attr title  "number of active sessions, vector"
75	12982 4452544 353471 70467333 5.037573840484 5146.117071728637 128528 1400 1400 179939200 251914880000
76	4465526 4452898 353317 70467293 5.028812979571 5146.108812979571 128528 1400 1400 179939200 251914880000
77	8918424 5737422 353471 70466666 5.037573840484 5146.077071728637 128527 0.016345626708 0.062211799153 2106.4391203415 34.556794954128
94	14655846 5932 999447 69219125 53.991676298559 5085.17519011735 188 1 1 188 188
95	14661778 6918 999447 69219125 53.991676298559 5085.17519011735 188 7083 7308203 175533756 3.4444290153685e+14
96	14668696 8376 999447 69219125 53.991676298559 5085.17519011735 188 0.026997957094 0.028267908425 5.084265885003 0.13750160036708
123	14677072 7153 927277 70333779 41.356045857548 5122.393298139264 189 7083 7308203 178267208 3.5191466137316e+14
124	14684225 6158 998888 70466919 53.964633341465 5146.102512643631 189 1 1 189 189
125	14690383 8672 927277 70333779 41.356045857548 5122.393298139264 189 0.644388489532 40.609829768764 2289.9176288659 63615.884528693
126	14699055 12504 927277 70465422 41.356045857548 5145.889908721475 378 -1 0 -189 189
138	14711559 1872 2431818 69090704 99.719951240489 5068.520380339323 56 1 56 1596 60116
150	14713431 1899 520397 69083037 7.577145160115 5067.441729391329 57 1 57 1653 63365
162	14715330 1899 502072 69138865 6.359647182108 5075.143374098052 57 1 57 1653 63365
174	14717229 1977 914537 70425671 41.125440235084 5138.923736962118 59 1 59 1770 70210
186	14719206 1965 561318 70430138 8.150090679387 5139.702408084062 59 1 59 1770 70210
198	14721171 1903 584442 70421431 11.152345360172 5138.178349289837 57 1 57 1653 63365
210	14723074 1971 732736 69761055 31.570459444152 5098.433705642949 59 1 59 1770 70210
222	14725045 1971 587875 69221518 11.466873786765 5085.513895616509 59 1 59 1770 70210
234	14727016 1934 560535 69885414 8.101365746829 5115.962269282592 58 1 58 1711 66729
246	14728950 1934 564135 69317698 8.450178470126 5087.079057349029 58 1 58 1711 66729
258	14730884 1911 1682305 69839169 87.064382227814 5109.364271903872 57 1 57 1653 63365
270	14732795 1834 641446 70394055 18.880158167628 5133.201623975198 55 1 55 1540 56980
282	14734629 1863 442974 70463689 5.640579336218 5145.591133978174 56 1 56 1596 60116
292	14736492 4581424 351223 70466679 5.020726101929 5146.100726101929 128528 1400 1400 179939200 251914880000
310	19317916 1396 1593586 69772009 75 5100 68 1 68 2346 107134
331	19319312 113666 500547 70466837 5.200097000646 5142.620797941971 2451 7.7821406659544 9686539.0486138 1307208945.523 5.8754168226794e+15
332	19432978 113803 500547 70466837 5.200097000646 5142.620797941971 2451 0.024319189581108 807.21158738448 109763.1610912 40896614.161066
333	19546781 195677 494660 70462992 5.021617173818 5144.461115061971 5136 277492.43430091 583525.80340948 1507445761.2207 4.4700476140761e+14
334	19742458 176315 494660 70462992 5.021617173818 5144.461115061971 5136 25 921.65536732462 254549.35968002 56765002.668733
339	19918773 195679 494662 70462994 5.021617173818 5144.461115061971 5136 277492.43430091 583525.80340948 1507347299.9261 4.469468229422e+14
340	20114452 176320 494662 70462994 5.021617173818 5144.461115061971 5136 25 921.65536732462 254109.80032894 56719367.390701
341	20290772 105672 503281 70466835 5.347992039578 5122.607022277054 2279 7.7821406659544 10577684.848807 1299464063.0055 5.7516596933018e+15
342	20396444 105697 503281 70466835 5.347992039578 5122.607022277054 2279 0.024319189581108 881.47373740061 108799.46654846 40010180.513829
343	20502141 105571 503107 70466675 5.403420602802 5122.596990943721 2277 7.7821411706354 10593471.939512 1375918086.5443 6.9569862981883e+15
344	20607712 105691 503107 70466675 5.403420602802 5122.596990943721 2277 0.024319191158235 882.78932829269 115186.07365482 48390267.610968
345	20713403 195677 497945 70463057 5.032573840484 5144.472071728637 5136 277244.56202487 583683.67702582 1507347821.127 4.4695154890581e+14
346	20909080 176317 497945 70463057 5.032573840484 5144.472071728637 5136 25 922.39897322011 254111.77451027 56731273.821322
347	21085397 193535 498118 70466399 5.033812979571 5145.033812979571 5141 285376 308224 1525848800 4.5288053735322e+14
348	21278932 172971 498118 70466399 5.033812979571 5145.033812979571 5141 49 51 257050 12852566
349	21451903 193535 498115 70466396 5.033812979571 5145.033812979571 5141 285600 285600 1468269600 4.1933779776e+14
350	21645438 172971 498115 70466396 5.033812979571 5145.033812979571 5141 25 25 128525 3213125
351	21818409 166834 501384 70467310 5.205167744784 5145.010112511644 3601 46.676651253455 288382.5007254 40065996.146142 4583648770530.6
352	21985243 167113 501384 70467310 5.205167744784 5145.010112511644 3601 0.14586453516705 900.7954055968 122301.02433704 44582115.68625
353	22152356 160621 503105 70461533 5.403420602802 5143.636196860313 3467 90.214785743301 10833539.417366 1413196515.6319 7.4055076184223e+15
354	22312977 161030 503105 70461533 5.403420602802 5143.636196860313 3467 0.25629200495256 902.79495144718 123638.27986873 51841721.196579
363	22474007 193535 496689 70466384 5.028812979571 5145.028812979571 5141 285600 285600 1468269600 4.1933779776e+14
364	22667542 172971 496689 70466384 5.028812979571 5145.028812979571 5141 25 25 128525 3213125
365	22840513 193535 499288 70466409 5.038812979571 5145.038812979571 5141 285376 308224 1525848800 4.5288053735322e+14
366	23034048 172971 499288 70466409 5.038812979571 5145.038812979571 5141 49 51 257050 12852566
367	23207019 160843 501434 70460597 5.227118296973 5143.460010714484 3467 90.214785743301 10873900.611511 1431414076.4151 7.6024039695065e+15
368	23367862 161286 501434 70460597 5.227118296973 5143.460010714484 3467 0.25629200495256 910.63374472934 125157.20633488 53220875.838296
369	23529148 167068 501428 70460596 5.221359679579 5143.460010714484 3600 46.676646896036 288382.5007254 40063731.180062 4583643334977.5
370	23696216 167346 501428 70460596 5.221359679579 5143.460010714484 3600 0.14586452155011 900.7954055968 122295.57844448 44582083.021545
375	23863562 107699 500629 70465425 5.200505174745 5122.285883270981 2318 4.4369965522554 287564.56342402 35067859.743455 4272166798524.8
376	23971261 107752 500629 70465425 5.200505174745 5122.285883270981 2318 0.013865614225798 898.63926070007 109558.72593317 41720242.464248
377	24079013 113887 500625 70466915 5.200505174745 5142.621886176071 2451 7.782140650814 10756114.343668 1303438795.29 5.824974360141e+15
378	24192900 114110 500625 70466915 5.200505174745 5142.621886176071 2451 0.024319189533794 896.34286197232 109449.05493507 40547250.416989
385	24307010 10455 586610 69868401 5.380643958394 5089.520380339323 283 3.6687754435332 202.66666666667 14991.315530412 1505756.9062609
386	24317465 13625 586610 69868401 5.380643958394 5089.520380339323 283 0.0095541027175343 0.66666666666667 40.767283237454 12.071856176887
387	24331090 15667 520668 70446760 5.643180390261 5102.594289128903 337 1.8660379926516 569.92396292215 32511.055118944 6420825.0671653
388	24346757 16055 520668 70446760 5.643180390261 5102.594289128903 337 0.0083305267529091 2.5443034059025 145.13863892386 127.96606080926
395	24362812 10492 580102 69860693 7.577145160115 5088.441729391329 284 4.8560898641248 202.66666666667 15092.603609193 1503879.8307413
396	24373304 13658 580102 69860693 7.577145160115 5088.441729391329 284 0.012646067354492 0.66666666666667 40.980838896838 11.936422241473
397	24386962 15658 520748 70446748 5.64318038685 5102.594289125492 337 1.8660379926516 569.92396292215 32511.052040843 6420795.2824598
398	24402620 16053 520748 70446748 5.64318038685 5102.594289125492 337 0.0083305267529091 2.5443034059025 145.13862518233 127.96546720463
405	24418673 10523 571451 69924116 6.359647182108 5096.143374098052 284 4.1601958986518 202.66666666667 15451.147654133 1642453.8314179
406	24429196 13653 571451 69924116 6.359647182108 5096.143374098052 284 0.010833843486072 0.66666666666667 42.583893954998 13.807579747371
407	24442849 15663 520630 70446722 5.643180376679 5102.594289115321 337 1.8660379926516 569.92396292215 32511.001147015 6420780.1944071
408	24458512 16054 520630 70446722 5.643180376679 5102.594289115321 337 0.0083305267529091 2.5443034059025 145.13839797775 127.96516650205
415	24474566 10804 943094 70442424 41.125440235084 5138.923736962118 291 4.9122142370585 202.66666666667 15546.549146386 1562245.5584666
416	24485370 14041 943094 70442424 41.125440235084 5138.923736962118 291 0.012792224575673 0.66666666666667 42.254802063881 12.465103418726
417	24499411 15655 520612 70446704 5.643180367706 5102.594289106348 337 1.8660379926516 569.92396292215 32511.145443391 6420859.300891
418	24515066 16042 520612 70446704 5.643180367706 5102.594289106348 337 0.0083305267529091 2.5443034059025 145.139042158 127.96674308217
425	24531108 10792 584283 70447528 8.150090679387 5139.702408084062 291 4.0155354854131 202.66666666667 15513.884096676 1539404.085768
426	24541900 13983 584283 70447528 8.150090679387 5139.702408084062 291 0.01045712365993 0.66666666666667 42.092387775091 12.155061086044
427	24555883 15668 520636 70446728 5.643180377701 5102.594289116343 337 1.8660379926516 569.92396292215 32510.910693091 6420667.7211099
428	24571551 16057 520636 70446728 5.643180377701 5102.594289116343 337 0.0083305267529091 2.5443034059025 145.13799416558 127.96292492646
435	24587608 10355 607089 70438167 11.152345360172 5138.178349289837 281 4.1831848138025 202.66666666667 14815.690215991 1448498.3914638
436	24597963 13520 607089 70438167 11.152345360172 5138.178349289837 281 0.010893710452611 0.66666666666667 39.965719925066 11.225441388564
437	24611483 15661 520618 70446710 5.643180371998 5102.59428911064 337 1.8660379926516 569.89206339916 32511.113758978 6420822.6710047
438	24627144 16058 520618 70446710 5.643180371998 5102.59428911064 337 0.0083305267529091 2.5441609973177 145.13890070972 127.96601305414
445	24643202 10851 753216 70451612 31.570459444152 5119.433705642949 294 4.3239064219086 202.66666666667 15589.822915113 1542882.5676764
446	24654053 14151 753216 70451612 31.570459444152 5119.433705642949 294 0.01126017297372 0.66666666666667 42.217270622358 12.165737504955
447	24668204 15654 520624 70446716 5.643180374527 5102.594289113169 337 1.8660379926516 569.92396292215 32511.175018713 6420889.7008848
448	24683858 16044 520624 70446716 5.643180374527 5102.594289113169 337 0.0083305267529091 2.5443034059025 145.13917419068 127.96734894939
455	24699902 10877 609715 70379146 11.466873786765 5106.513895616509 294 5.4147295054545 202.66666666667 15624.575853515 1536483.3615993
456	24710779 14154 609715 70379146 11.466873786765 5106.513895616509 294 0.015211261737771 0.66666666666667 42.3880070496 12.081015651147
457	24724933 15653 520674 70446766 5.643180390778 5102.59428912942 337 1.8660379926516 569.92396292215 32511.102763755 6420855.8734374
458	24740586 16050 520674 70446766 5.643180390778 5102.59428912942 337 0.0083305267529091 2.5443034059025 145.1388516239 127.96667477354
465	24756636 10648 583912 70414759 8.101365746829 5124.962269282592 288 3.6538339727684 202.66666666667 15192.936402206 1471837.2108135
466	24767284 13854 583912 70414759 8.101365746829 5124.962269282592 288 0.0095151926374176 0.66666666666667 40.959869432139 11.355950080918
467	24781138 15656 520648 70446740 5.643180384319 5102.594289122961 337 1.8660379926516 569.92396292215 32511.151047355 6420874.0213402
468	24796794 16056 520648 70446740 5.643180384319 5102.594289122961 337 0.0083305267529091 2.5443034059025 145.13906717569 127.96703645847
475	24812850 10649 587489 70387825 8.450178470126 5108.079057349029 289 5.1604323408948 202.66666666667 15384.058814437 1547258.1723875
476	24823499 13900 587489 70387825 8.450178470126 5108.079057349029 289 0.013438625887747 0.66666666666667 41.815876480772 12.375699474513
477	24837399 15658 520606 70446698 5.643180359298 5102.59428909794 337 1.8660379926516 569.92396292215 32511.165220499 6420896.6604664
478	24853057 16054 520606 70446698 5.643180359298 5102.59428909794 337 0.0083305267529091 2.5443034059025 145.13913044866 127.96748765279
485	24869111 10638 594360 70378160 6.311598253268 5118.364271903872 287 3.851655026201 202.66666666667 15094.896129298 1477708.9629527
486	24879749 13844 594360 70378160 6.311598253268 5118.364271903872 287 0.010030351630732 0.66666666666667 40.778854031769 11.547230944746
487	24893593 15658 520686 70446778 5.643180392318 5102.59428913096 337 1.8660379926516 569.92396292215 32511.084591652 6420814.6969176
488	24909251 16053 520686 70446778 5.643180392318 5102.59428913096 337 0.0083305267529091 2.5443034059025 145.13877049845 127.96585413181
495	24925304 10079 663406 70444149 18.880158167628 5136.201623975198 272 3.8385397846412 202.66666666667 14659.980331078 1507700.2970802
496	24935383 13084 663406 70444149 18.880158167628 5136.201623975198 272 0.0099961973558364 0.66666666666667 40.117668022047 12.293096003154
497	24948467 15612 520642 70446734 5.643180381792 5102.594382120434 337 1.8660379926516 569.92396292215 32510.987689505 6420752.6273634
498	24964079 15997 520642 70446734 5.643180381792 5102.594382120434 337 0.0083305267529091 2.5443034059025 145.13833789958 127.96461709509
505	24980076 10188 566122 70463692 5.640579336218 5105.748252139121 275 3.2893037894615 202.66666666667 14787.559983909 1533330.1060727
506	24990264 13202 566122 70463692 5.640579336218 5105.748252139121 275 0.008565895285056 0.66666666666667 40.573171639062 12.629825458998
507	25003466 15621 520680 70446772 5.643264391652 5102.594289130294 337 1.8660379926516 569.92396292215 32511.216276195 6420885.6985024
508	25019087 16006 520680 70446772 5.643264391652 5102.594289130294 337 0.0083305267529091 2.5443034059025 145.13935837587 127.96726918253
515	25035093 193535 494253 70466229 5.020726101929 5145.020726101929 5141 285600 285824 1468278560 4.1934291771904e+14
516	25228628 172971 494253 70466229 5.020726101929 5145.020726101929 5141 25 26 128565 3215165
517	25401599 15641 520654 70446836 5.643180384495 5102.594289123137 337 1.8660364070549 569.92396292215 32511.342152756 6420967.3398267
518	25417240 16029 520654 70446836 5.643180384495 5102.594289123137 337 0.0083305196743522 2.5443034059025 145.1399203248 127.96889628162
525	25433269 7554 657149 70460279 9 5121 342 12.8 202.66666666667 18767.2 1987300.9066667
526	25440823 12054 657149 70460279 9 5121 342 0.033333333333333 0.66666666666667 51.716666666667 16.804583333333
527	25452877 15659 520662 70446754 5.643180389431 5102.594289128073 337 1.8660379926516 569.92396292215 32511.132147157 6420881.4889893
528	25468536 16054 520662 70446754 5.643180389431 5102.594289128073 337 0.0083305267529091 2.5443034059025 145.13898279981 127.96718528757
535	25484590 113610 500554 70466844 5.200219130646 5142.620803751971 2451 12.451425041302 9803664.2631783 1323076867.2072 6.0175540663056e+15
536	25598200 113817 500554 70466844 5.200219130646 5142.620803751971 2451 0.024319189533794 807.28460665171 109763.67002268 40897081.339318
537	25712017 195671 494608 70462940 5.021502243818 5144.461000131971 5136 278449.34299142 744723.30097428 1531432267.4702 4.6825553601105e+14
538	25907688 176308 494608 70462940 5.021502243818 5144.461000131971 5136 25 921.82584135935 254547.15231781 56764902.942782
545	26083996 195671 494610 70462942 5.021502243818 5144.461000131971 5136 278449.34299142 744723.30097428 1531432267.4702 4.6825553601105e+14
546	26279667 176308 494610 70462942 5.021502243818 5144.461000131971 5136 25 921.82584135935 254547.15231781 56764902.942782
547	26455975 113610 500552 70466842 5.200219130646 5142.620803751971 2451 12.451425041302 9803664.2631783 1323076867.2072 6.0175540663056e+15
548	26569585 113817 500552 70466842 5.200219130646 5142.620803751971 2451 0.024319189533794 807.28460665171 109763.67002268 40897081.339318
75	26683402 226497 70467613 74429314 5146.157071728637 5404.997071728637 6472 1400 1400 9060800 12685120000
76	26909899 226520 70467515 74429288 5146.148812979571 5404.988812979571 6472 1400 1400 9060800 12685120000
77	27136419 291245 70467333 74429314 5146.117071728637 5404.997071728637 6473 0.016345626708 0.064747324796 106.21639994373 1.7478784088985
94	27427664 319 70467348 74121234 5146.129573600725 5399.64095097199 10 1 1 10 10
95	27427983 372 70467348 74121234 5146.129573600725 5399.64095097199 10 80061 3577766 10949255 21745539344873
96	27428355 449 70467348 74121234 5146.129573600725 5399.64095097199 10 0.027006957094 0.028294715644 0.27162732949 0.0073795689095
123	27428804 343 70700935 73998961 5151.706532976608 5377.880782240349 9 80061 3577766 9584544 19883103231352
124	27429147 297 70855617 74120650 5178.741393176071 5399.613935014896 9 1 1 9 9
125	27429444 414 70700935 73998961 5151.706532976608 5377.880782240349 9 1.311956786728 36.817398769806 104.83839373866 2751.9771759915
126	27429858 601 70700935 74119308 5151.706532976608 5399.40133109274 18 -1 0 -9 9
138	27430459 102 70699626 73372934 5151.531726186642 5322.770547669793 3 57 59 174 10094