file 27114749 1471642085                                        
version 2
run _14to17off-5-20160819-23:19:55-5071
attr configname _14to17off
attr datetime 20160819-23:19:55
attr experiment _14to17off
attr inifile omnetpp.ini
attr iterationvars $0=14
attr iterationvars2 "$0=14, $repetition=5"
attr measurement $0=14
attr network University
attr processid 5071
attr repetition 5
attr replication #5
attr resultdir results
attr runnumber 5
attr seedset 5

vector 75  University.profLaptop.udpApp[0]  rcvdPk:vector(packetBytes)  ETV
attr interpolationmode  none
attr source  rcvdPk
attr title  "packets received, vector(packetBytes)"
vector 77  University.profLaptop.udpApp[0]  rcvdPkLifetime:vector  ETV
attr interpolationmode  none
attr source  messageAge(rcvdPk)
attr title  "received packet lifetime, vector"
attr unit  s
vector 282  University.whttpStudents[13].tcpApp[0]  numActiveSessions:vector  ETV
attr interpolationmode  sample-hold
attr source  sum(connect)
attr title  "number of active sessions, vector"
vector 292  University.whostVideoConf.udpApp[0]  sentPk:vector(packetBytes)  ETV
attr interpolationmode  none
attr source  sentPk
attr title  "packets sent, vector(packetBytes)"
vector 76  University.profLaptop.udpApp[0]  sentPk:vector(packetBytes)  ETV
attr interpolationmode  none
attr source  sentPk
attr title  "packets sent, vector(packetBytes)"
vector 365  University.profLaptop.ppp[0].inputHook[0]  "thruput (bit/sec)"  ETV
vector 366  University.profLaptop.ppp[0].inputHook[0]  packet/sec  ETV
vector 515  University.whostVideoConf.wlan[0].outputHook[0]  "thruput (bit/sec)"  ETV
vector 516  University.whostVideoConf.wlan[0].outputHook[0]  packet/sec  ETV
vector 537  University.accessPoint.wlan[0].inputHook[0]  "thruput (bit/sec)"  ETV
vector 538  University.accessPoint.wlan[0].inputHook[0]  packet/sec  ETV
vector 545  University.accessPoint.eth[0].outputHook[0]  "thruput (bit/sec)"  ETV
vector 546  University.accessPoint.eth[0].outputHook[0]  packet/sec  ETV
vector 333  University.remoteR.eth[0].inputHook[0]  "thruput (bit/sec)"  ETV
vector 334  University.remoteR.eth[0].inputHook[0]  packet/sec  ETV
vector 339  University.remoteR.ppp[0].outputHook[0]  "thruput (bit/sec)"  ETV
vector 340  University.remoteR.ppp[0].outputHook[0]  packet/sec  ETV
vector 363  University.profLaptop.ppp[0].outputHook[0]  "thruput (bit/sec)"  ETV
vector 364  University.profLaptop.ppp[0].outputHook[0]  packet/sec  ETV
vector 349  University.mainR.ppp[1].inputHook[0]  "thruput (bit/sec)"  ETV
vector 350  University.mainR.ppp[1].inputHook[0]  packet/sec  ETV
vector 347  University.mainR.ppp[1].outputHook[0]  "thruput (bit/sec)"  ETV
vector 348  University.mainR.ppp[1].outputHook[0]  packet/sec  ETV
vector 345  University.mainR.ppp[0].inputHook[0]  "thruput (bit/sec)"  ETV
vector 346  University.mainR.ppp[0].inputHook[0]  packet/sec  ETV
vector 126  University.whttpStudents[0].tcpApp[0]  numActiveSessions:vector  ETV
attr interpolationmode  sample-hold
attr source  sum(connect)
attr title  "number of active sessions, vector"
vector 331  University.remoteR.eth[0].outputHook[0]  "thruput (bit/sec)"  ETV
vector 332  University.remoteR.eth[0].outputHook[0]  packet/sec  ETV
vector 547  University.accessPoint.eth[0].inputHook[0]  "thruput (bit/sec)"  ETV
vector 548  University.accessPoint.eth[0].inputHook[0]  packet/sec  ETV
vector 535  University.accessPoint.wlan[0].outputHook[0]  "thruput (bit/sec)"  ETV
vector 536  University.accessPoint.wlan[0].outputHook[0]  packet/sec  ETV
vector 497  University.whttpStudents[12].wlan[0].inputHook[0]  "thruput (bit/sec)"  ETV
vector 498  University.whttpStudents[12].wlan[0].inputHook[0]  packet/sec  ETV
vector 487  University.whttpStudents[11].wlan[0].inputHook[0]  "thruput (bit/sec)"  ETV
vector 488  University.whttpStudents[11].wlan[0].inputHook[0]  packet/sec  ETV
vector 417  University.whttpStudents[4].wlan[0].inputHook[0]  "thruput (bit/sec)"  ETV
vector 418  University.whttpStudents[4].wlan[0].inputHook[0]  packet/sec  ETV
vector 447  University.whttpStudents[7].wlan[0].inputHook[0]  "thruput (bit/sec)"  ETV
vector 448  University.whttpStudents[7].wlan[0].inputHook[0]  packet/sec  ETV
vector 437  University.whttpStudents[6].wlan[0].inputHook[0]  "thruput (bit/sec)"  ETV
vector 438  University.whttpStudents[6].wlan[0].inputHook[0]  packet/sec  ETV
vector 407  University.whttpStudents[3].wlan[0].inputHook[0]  "thruput (bit/sec)"  ETV
vector 408  University.whttpStudents[3].wlan[0].inputHook[0]  packet/sec  ETV
vector 467  University.whttpStudents[9].wlan[0].inputHook[0]  "thruput (bit/sec)"  ETV
vector 468  University.whttpStudents[9].wlan[0].inputHook[0]  packet/sec  ETV
vector 527  University.whostFTP.wlan[0].inputHook[0]  "thruput (bit/sec)"  ETV
vector 528  University.whostFTP.wlan[0].inputHook[0]  packet/sec  ETV
vector 397  University.whttpStudents[2].wlan[0].inputHook[0]  "thruput (bit/sec)"  ETV
vector 398  University.whttpStudents[2].wlan[0].inputHook[0]  packet/sec  ETV
vector 477  University.whttpStudents[10].wlan[0].inputHook[0]  "thruput (bit/sec)"  ETV
vector 478  University.whttpStudents[10].wlan[0].inputHook[0]  packet/sec  ETV
vector 427  University.whttpStudents[5].wlan[0].inputHook[0]  "thruput (bit/sec)"  ETV
vector 428  University.whttpStudents[5].wlan[0].inputHook[0]  packet/sec  ETV
vector 457  University.whttpStudents[8].wlan[0].inputHook[0]  "thruput (bit/sec)"  ETV
vector 458  University.whttpStudents[8].wlan[0].inputHook[0]  packet/sec  ETV
vector 517  University.whostVideoConf.wlan[0].inputHook[0]  "thruput (bit/sec)"  ETV
vector 518  University.whostVideoConf.wlan[0].inputHook[0]  packet/sec  ETV
vector 507  University.whttpStudents[13].wlan[0].inputHook[0]  "thruput (bit/sec)"  ETV
vector 508  University.whttpStudents[13].wlan[0].inputHook[0]  packet/sec  ETV
vector 387  University.whttpStudents[1].wlan[0].inputHook[0]  "thruput (bit/sec)"  ETV
vector 388  University.whttpStudents[1].wlan[0].inputHook[0]  packet/sec  ETV
vector 377  University.whttpStudents[0].wlan[0].inputHook[0]  "thruput (bit/sec)"  ETV
vector 378  University.whttpStudents[0].wlan[0].inputHook[0]  packet/sec  ETV
vector 351  University.mainR.ppp[2].outputHook[0]  "thruput (bit/sec)"  ETV
vector 352  University.mainR.ppp[2].outputHook[0]  packet/sec  ETV
vector 369  University.Server.ppp[0].inputHook[0]  "thruput (bit/sec)"  ETV
vector 370  University.Server.ppp[0].inputHook[0]  packet/sec  ETV
vector 367  University.Server.ppp[0].outputHook[0]  "thruput (bit/sec)"  ETV
vector 368  University.Server.ppp[0].outputHook[0]  packet/sec  ETV
vector 353  University.mainR.ppp[2].inputHook[0]  "thruput (bit/sec)"  ETV
vector 354  University.mainR.ppp[2].inputHook[0]  packet/sec  ETV
vector 124  University.whttpStudents[0].tcpApp[0]  sentPk:vector(packetBytes)  ETV
attr interpolationmode  none
attr source  sentPk
attr title  "packets sent, vector(packetBytes)"
vector 94  University.Server.tcpApp[0]  rcvdPk:vector(packetBytes)  ETV
attr interpolationmode  none
attr source  rcvdPk
attr title  "packets received, vector(packetBytes)"
vector 96  University.Server.tcpApp[0]  endToEndDelay:vector  ETV
attr interpolationmode  none
attr source  messageAge(rcvdPk)
attr title  "end-to-end delay, vector"
attr unit  s
vector 95  University.Server.tcpApp[0]  sentPk:vector(packetBytes)  ETV
attr interpolationmode  none
attr source  sentPk
attr title  "packets sent, vector(packetBytes)"
vector 150  University.whttpStudents[2].tcpApp[0]  numActiveSessions:vector  ETV
attr interpolationmode  sample-hold
attr source  sum(connect)
attr title  "number of active sessions, vector"
vector 375  University.whttpStudents[0].wlan[0].outputHook[0]  "thruput (bit/sec)"  ETV
vector 376  University.whttpStudents[0].wlan[0].outputHook[0]  packet/sec  ETV
vector 343  University.mainR.ppp[0].outputHook[0]  "thruput (bit/sec)"  ETV
vector 344  University.mainR.ppp[0].outputHook[0]  packet/sec  ETV
vector 341  University.remoteR.ppp[0].inputHook[0]  "thruput (bit/sec)"  ETV
vector 342  University.remoteR.ppp[0].inputHook[0]  packet/sec  ETV
vector 234  University.whttpStudents[9].tcpApp[0]  numActiveSessions:vector  ETV
attr interpolationmode  sample-hold
attr source  sum(connect)
attr title  "number of active sessions, vector"
vector 505  University.whttpStudents[13].wlan[0].outputHook[0]  "thruput (bit/sec)"  ETV
vector 506  University.whttpStudents[13].wlan[0].outputHook[0]  packet/sec  ETV
vector 138  University.whttpStudents[1].tcpApp[0]  numActiveSessions:vector  ETV
attr interpolationmode  sample-hold
attr source  sum(connect)
attr title  "number of active sessions, vector"
vector 395  University.whttpStudents[2].wlan[0].outputHook[0]  "thruput (bit/sec)"  ETV
vector 396  University.whttpStudents[2].wlan[0].outputHook[0]  packet/sec  ETV
vector 162  University.whttpStudents[3].tcpApp[0]  numActiveSessions:vector  ETV
attr interpolationmode  sample-hold
attr source  sum(connect)
attr title  "number of active sessions, vector"
vector 465  University.whttpStudents[9].wlan[0].outputHook[0]  "thruput (bit/sec)"  ETV
vector 466  University.whttpStudents[9].wlan[0].outputHook[0]  packet/sec  ETV
vector 445  University.whttpStudents[7].wlan[0].outputHook[0]  "thruput (bit/sec)"  ETV
vector 446  University.whttpStudents[7].wlan[0].outputHook[0]  packet/sec  ETV
vector 123  University.whttpStudents[0].tcpApp[0]  rcvdPk:vector(packetBytes)  ETV
attr interpolationmode  none
attr source  rcvdPk
attr title  "packets received, vector(packetBytes)"
vector 125  University.whttpStudents[0].tcpApp[0]  endToEndDelay:vector  ETV
attr interpolationmode  none
attr source  messageAge(rcvdPk)
attr title  "end-to-end delay, vector"
attr unit  s
vector 258  University.whttpStudents[11].tcpApp[0]  numActiveSessions:vector  ETV
attr interpolationmode  sample-hold
attr source  sum(connect)
attr title  "number of active sessions, vector"
vector 385  University.whttpStudents[1].wlan[0].outputHook[0]  "thruput (bit/sec)"  ETV
vector 386  University.whttpStudents[1].wlan[0].outputHook[0]  packet/sec  ETV
vector 405  University.whttpStudents[3].wlan[0].outputHook[0]  "thruput (bit/sec)"  ETV
vector 406  University.whttpStudents[3].wlan[0].outputHook[0]  packet/sec  ETV
vector 485  University.whttpStudents[11].wlan[0].outputHook[0]  "thruput (bit/sec)"  ETV
vector 486  University.whttpStudents[11].wlan[0].outputHook[0]  packet/sec  ETV
vector 270  University.whttpStudents[12].tcpApp[0]  numActiveSessions:vector  ETV
attr interpolationmode  sample-hold
attr source  sum(connect)
attr title  "number of active sessions, vector"
vector 525  University.whostFTP.wlan[0].outputHook[0]  "thruput (bit/sec)"  ETV
vector 526  University.whostFTP.wlan[0].outputHook[0]  packet/sec  ETV
vector 425  University.whttpStudents[5].wlan[0].outputHook[0]  "thruput (bit/sec)"  ETV
vector 426  University.whttpStudents[5].wlan[0].outputHook[0]  packet/sec  ETV
vector 495  University.whttpStudents[12].wlan[0].outputHook[0]  "thruput (bit/sec)"  ETV
vector 496  University.whttpStudents[12].wlan[0].outputHook[0]  packet/sec  ETV
vector 455  University.whttpStudents[8].wlan[0].outputHook[0]  "thruput (bit/sec)"  ETV
vector 456  University.whttpStudents[8].wlan[0].outputHook[0]  packet/sec  ETV
vector 198  University.whttpStudents[6].tcpApp[0]  numActiveSessions:vector  ETV
attr interpolationmode  sample-hold
attr source  sum(connect)
attr title  "number of active sessions, vector"
vector 435  University.whttpStudents[6].wlan[0].outputHook[0]  "thruput (bit/sec)"  ETV
vector 436  University.whttpStudents[6].wlan[0].outputHook[0]  packet/sec  ETV
vector 246  University.whttpStudents[10].tcpApp[0]  numActiveSessions:vector  ETV
attr interpolationmode  sample-hold
attr source  sum(connect)
attr title  "number of active sessions, vector"
vector 475  University.whttpStudents[10].wlan[0].outputHook[0]  "thruput (bit/sec)"  ETV
vector 476  University.whttpStudents[10].wlan[0].outputHook[0]  packet/sec  ETV
vector 174  University.whttpStudents[4].tcpApp[0]  numActiveSessions:vector  ETV
attr interpolationmode  sample-hold
attr source  sum(connect)
attr title  "number of active sessions, vector"
vector 415  University.whttpStudents[4].wlan[0].outputHook[0]  "thruput (bit/sec)"  ETV
vector 416  University.whttpStudents[4].wlan[0].outputHook[0]  packet/sec  ETV
vector 310  University.whostFTP.tcpApp[0]  numActiveSessions:vector  ETV
attr interpolationmode  sample-hold
attr source  sum(connect)
attr title  "number of active sessions, vector"
vector 186  University.whttpStudents[5].tcpApp[0]  numActiveSessions:vector  ETV
attr interpolationmode  sample-hold
attr source  sum(connect)
attr title  "number of active sessions, vector"
vector 222  University.whttpStudents[8].tcpApp[0]  numActiveSessions:vector  ETV
attr interpolationmode  sample-hold
attr source  sum(connect)
attr title  "number of active sessions, vector"
vector 210  University.whttpStudents[7].tcpApp[0]  numActiveSessions:vector  ETV
attr interpolationmode  sample-hold
attr source  sum(connect)
attr title  "number of active sessions, vector"
75	12982 4582145 47183 81636790 5.009407798477 5294.049407798477 132227 1400 1400 185117800 259164920000
76	4595127 4582599 47910 81636946 5.034829292139 5294.074829292139 132227 1400 1400 185117800 259164920000
77	9177726 5903873 47183 81636790 5.009407798477 5294.049407798477 132227 0.016345628385 0.116835397462 2168.1811654785 35.614516305768
94	15081599 8834 58770 81480320 6.831566517959 5290.246964321726 280 1 1 280 280
95	15090433 10278 58770 81480320 6.831566517959 5290.246964321726 280 234 5318495 222346699 3.6637000824802e+14
96	15100711 12474 58770 81480320 6.831566517959 5290.246964321726 280 0.018340337886 0.019610128952 5.146785399146 0.094608358648148
123	15113185 10559 563986 81626605 12.145858498501 5292.321312672275 280 234 5318495 222346699 3.6637000824802e+14
124	15123744 9104 58361 81479729 6.813217180073 5290.22861498384 280 1 1 280 280
125	15132848 12719 563986 81626605 12.145858498501 5292.321312672275 280 0.030579158984 7.898040287721 690.87053040952 3101.8206768204
126	15145567 18235 57507 81626605 6.782146720127 5292.321312672275 560 0 1 280 280
138	15163802 1997 303487 80475704 10.053511230755 5200.652030357957 60 1 60 1830 73810
150	15165799 1969 231437 81340244 7.581020587031 5265.829106957222 59 1 59 1770 70210
162	15167768 1865 328641 81119639 10.960181143423 5249.989085557542 56 1 56 1596 60116
174	15169633 2011 1523326 81452167 70.362444398539 5285.459376808936 60 1 60 1830 73810
186	15171644 1969 1557138 81103025 76.397705961096 5247.066890092672 59 1 59 1770 70210
198	15173613 2004 913231 80887361 25.678106972484 5238.310191314444 60 1 60 1830 73810
210	15175617 1974 1664861 81429692 95.607104553149 5281.870952451642 59 1 59 1770 70210
222	15177591 1871 1631720 81606295 89.793455874201 5291.097217954488 56 1 56 1596 60116
234	15179462 2031 248867 81340873 8.022549544713 5265.909604104243 61 1 61 1891 77531
246	15181493 1971 1017435 81347271 31.544100916993 5267.060648715146 59 1 59 1770 70210
258	15183464 1972 569781 81131819 13.006717084391 5252.144701492073 59 1 59 1770 70210
270	15185436 1996 609825 81402333 19.744311576066 5276.859141960943 60 1 60 1830 73810
282	15187432 1899 47184 80740550 5.025502638381 5211.521540699191 57 1 57 1653 63365
292	15189331 4714825 47755 81636791 5.033062170092 5294.073062170092 132227 1400 1400 185117800 259164920000
310	19904156 1438 1549405 81119974 75 5250 70 1 70 2485 116795
331	19905594 56886 57593 81625451 5.025574484336 5291.228243308851 1225 5.6958413850279 11110341.373353 1499180172.2488 7.1917953192764e+15
332	19962480 57379 57593 81625451 5.025574484336 5291.228243308851 1225 0.025427863326017 925.88844456686 125832.885673 50383598.145109
333	20019859 202666 53476 81634990 5.033451131811 5292.713451131811 5283 277635.00452768 587832.13624405 1559552407.3149 4.6576675742952e+14
334	20222525 183418 53476 81634990 5.033451131811 5292.713451131811 5283 25 935.37645441946 289858.98732268 67533223.303131
339	20405943 202657 53478 81634992 5.033451131811 5292.713451131811 5283 277635.00452768 587832.13624405 1559418517.8805 4.6568580786289e+14
340	20608600 183412 53478 81634992 5.033451131811 5292.713451131811 5283 24.960884710191 935.37645441946 289258.96481444 67441617.880431
341	20792012 38642 243243 81626036 6.813141180554 5291.259435056425 832 9.5445451148437 11110341.373353 1449483475.6894 7.1372620043744e+15
342	20830654 38704 243243 81626036 6.813141180554 5291.259435056425 832 0.029826703483887 925.88844456686 121323.95832388 49927594.035963
343	20869358 38596 243231 81625954 6.803104513888 5291.248430389759 831 9.5445458739966 11023770.236871 1646878292.3757 9.6676629665048e+15
344	20907954 38656 243231 81625954 6.803104513888 5291.248430389759 831 0.029826705856239 918.64751973926 137787.76050943 67587337.876554
345	20946610 202656 53549 81635063 5.044407798477 5292.724407798477 5283 279198.69036569 587932.96972492 1559409369.0794 4.656796179704e+14
346	21149266 183394 53549 81635063 5.044407798477 5292.724407798477 5283 24.960884710191 936.02720040006 289233.2885617 67459072.539624
347	21332660 199170 53544 81636770 5.039829292139 5293.039829292139 5289 296800 296800 1569775200 4.6590927936e+14
348	21531830 178014 53544 81636770 5.039829292139 5293.039829292139 5289 50 50 264450 13222500
349	21709844 199170 53541 81636767 5.039829292139 5293.039829292139 5289 285600 285600 1510538400 4.3140976704e+14
350	21909014 178014 53541 81636767 5.039829292139 5293.039829292139 5289 25 25 132225 3305625
351	22087028 131441 58235 81625756 5.037200222912 5291.239072641221 2835 82.96871915559 290158.66677924 47296711.977937 5470881205252
352	22218469 131793 58235 81625756 5.037200222912 5291.239072641221 2835 0.25927724736122 906.74583368511 145338.31131156 53140435.841217
353	22350262 130682 58265 81625952 5.04644245145 5291.248430389759 2823 68.519483889649 11116059.063069 1830107872.9381 9.86499620925e+15
354	22480944 131245 58265 81625952 5.04644245145 5291.248430389759 2823 0.1946576246865 926.38151301315 158001.22880555 69492386.10163
363	22612189 199170 53536 81636762 5.034829292139 5293.034829292139 5289 285600 285600 1510538400 4.3140976704e+14
364	22811359 178014 53536 81636762 5.034829292139 5293.034829292139 5289 25 25 132225 3305625
365	22989373 199170 53369 81636595 5.004829292139 5293.004829292139 5289 296800 296800 1569775200 4.6590927936e+14
366	23188543 178014 53369 81636595 5.004829292139 5293.004829292139 5289 50 50 264450 13222500
367	23366557 130846 58260 81625927 5.044735222242 5291.246607000551 2823 68.519483889649 11116059.063069 1829169276.7353 9.8553283852166e+15
368	23497403 131432 58260 81625927 5.044735222242 5291.246607000551 2823 0.1946576246865 926.38151301315 157923.38200797 69426335.399433
369	23628835 131465 58256 81625923 5.044735222242 5291.246607000551 2835 82.968705387976 290158.66677924 47296477.028668 5470859386329.9
370	23760300 131835 58256 81625923 5.044735222242 5291.246607000551 2835 0.25927720433743 906.74583368511 145337.57971565 53140231.414732
375	23892135 38858 242634 81625521 6.782146720127 5291.228651468369 837 7.6394186329531 290690.7983908 38743636.695744 5036566411362.4
376	23930993 38931 242634 81625521 6.782146720127 5291.228651468369 837 0.023873183227978 908.40874497125 121043.46920509 49161090.708635
377	23969924 56901 57843 81625517 5.026662703855 5291.228651468369 1226 5.6958413850279 10921851.759049 1498213069.7975 7.1618742840552e+15
378	24026825 57362 57843 81625517 5.026662703855 5291.228651468369 1226 0.025427863326017 910.67888559457 125751.00567651 50175223.785206
385	24084187 11091 570573 81095274 10.053511230755 5221.652030357957 299 5.056649387311 202.66666666667 16464.161204638 1763014.1803032
386	24095278 14359 570573 81095274 10.053511230755 5221.652030357957 299 0.013168357779456 0.66666666666667 45.659496297004 14.990969990277
387	24109637 24151 57782 81622059 5.026662716797 5290.198767595874 520 1.8660924749929 618.58693639882 37468.546203319 6149922.2936447
388	24133788 24801 57782 81622059 5.026662716797 5290.198767595874 520 0.0083307699776469 2.761548823209 167.27029555053 122.5670099977
395	24158589 10935 318294 81459922 7.581020587031 5274.829106957222 293 4.5406166174895 202.66666666667 16108.714419486 1716459.4017673
396	24169524 14102 318294 81459922 7.581020587031 5274.829106957222 293 0.011824522441379 0.66666666666667 44.621859729938 14.514604654916
397	24183626 24154 57744 81622021 5.026662702697 5290.198767581774 520 1.8660924749929 618.52373730936 37468.554333755 6149889.9777938
398	24207780 24801 57744 81622021 5.026662702697 5290.198767581774 520 0.0083307699776469 2.7612666844168 167.27033184712 122.56636594774
405	24232581 10371 575705 81369462 10.960181143423 5258.989085557542 278 3.1101701435709 202.66666666667 15325.167252704 1653415.9394069
406	24242952 13363 575705 81369462 10.960181143423 5258.989085557542 278 0.0080994014155491 0.66666666666667 42.578380995799 14.107797149772
407	24256315 24140 57726 81622003 5.026662694569 5290.198767573646 520 1.8660924749929 618.58693639882 37468.583201127 6149920.4685899
408	24280455 24791 57726 81622003 5.026662694569 5290.198767573646 520 0.0083307699776469 2.761548823209 167.27046071932 122.56697362464
415	24305246 11028 1540313 81469341 70.362444398539 5285.459376808936 296 5.2388486762265 202.66666666667 16255.030897475 1731308.9281811
416	24316274 14275 1540313 81469341 70.362444398539 5285.459376808936 296 0.01364283509434 0.66666666666667 44.955437993234 14.600557300201
417	24330549 24148 57708 81621985 5.026662687921 5290.198767566998 520 1.8660924749929 618.58693639882 37468.474984339 6149854.0516519
418	24354697 24792 57708 81621985 5.026662687921 5290.198767566998 520 0.0083307699776469 2.761548823209 167.26997760866 122.56564994523
425	24379489 11050 722385 81621788 10.262814910272 5268.066890092672 297 2.7852162942461 202.66666666667 16026.502147039 1650886.7082101
426	24390539 14282 722385 81621788 10.262814910272 5268.066890092672 297 0.0072531674329326 0.66666666666667 44.06902315572 13.615133114887
427	24404821 24122 57756 81622116 5.02666270361 5290.198767582687 520 1.8660924749929 618.58693639882 37468.53227352 6149902.1040837
428	24428943 24777 57756 81622116 5.02666270361 5290.198767582687 520 0.0083307699776469 2.761548823209 167.27023336393 122.56660762284
435	24453720 11117 993381 81440159 25.678106972484 5259.310191314444 299 5.2823014500761 202.66666666667 16207.500083009 1670030.8484808
436	24464837 14396 993381 81440159 25.678106972484 5259.310191314444 299 0.013755993359573 0.66666666666667 44.524892793681 13.736319163083
437	24479233 24143 57720 81621997 5.026662693109 5290.198767572186 520 1.8660924749929 618.58693639882 37468.603160641 6149938.2509512
438	24503376 24789 57720 81621997 5.026662693109 5290.198767572186 520 0.0083307699776469 2.761548823209 167.27054982429 122.56732802438
445	24528165 11028 389631 81602032 5.585150139911 5284.870952451642 296 3.3895507486587 202.66666666667 16172.228797762 1689932.7968005
446	24539193 14249 389631 81602032 5.585150139911 5284.870952451642 296 0.0088269550746322 0.66666666666667 44.701960088243 14.123994156722
447	24553442 24154 57714 81621991 5.026662691952 5290.198767571029 520 1.8660924749929 618.58693639882 37468.677067211 6150017.7248935
448	24577596 24808 57714 81621991 5.026662691952 5290.198767571029 520 0.0083307699776469 2.761548823209 167.27087976433 122.56891192788
455	24602404 10392 725529 81606298 10.763196392515 5226.466826863801 278 3.1240921073203 202.66666666667 15021.400815662 1569561.6493959
456	24612796 13378 725529 81606298 10.763196392515 5226.466826863801 278 0.00813565652948 0.66666666666667 41.523028800884 13.11049132289
457	24626174 24126 57764 81622041 5.026662705215 5290.198767584292 520 1.8660924749929 618.58693639882 37468.654704977 6149972.2952684
458	24650300 24768 57764 81622041 5.026662705215 5290.198767584292 520 0.0083307699776469 2.761548823209 167.27077993293 122.56800652241
465	24675068 11291 330830 81460568 8.022549544713 5274.909604104243 303 4.8554400328136 202.66666666667 16642.061758102 1751773.8104318
466	24686359 14563 330830 81460568 8.022549544713 5274.909604104243 303 0.012644375085452 0.66666666666667 46.037508717931 14.695848712013
467	24700922 24145 57732 81622009 5.026662699169 5290.198767578246 520 1.8660924749929 618.58693639882 37468.565202498 6149914.7580057
468	24725067 24793 57732 81622009 5.026662699169 5290.198767578246 520 0.0083307699776469 2.761548823209 167.2703803683 122.56685981357
475	24749860 10936 1034620 81466983 31.544100916993 5276.060648715146 293 4.4531241392522 202.66666666667 16136.463544412 1722215.3937915
476	24760796 14107 1034620 81466983 31.544100916993 5276.060648715146 293 0.011596677445969 0.66666666666667 44.736970952258 14.591770987218
477	24774903 24140 57750 81622027 5.026662703159 5290.198767582236 520 1.8660924749929 618.58693639882 37468.624173451 6149959.090087
478	24799043 24782 57750 81622027 5.026662703159 5290.198767582236 520 0.0083307699776469 2.761548823209 167.27064363148 122.56774334516
485	24823825 10932 587166 81381472 13.006717084391 5261.144701492073 293 4.1171252589447 202.66666666667 16117.013726979 1720532.7562905
486	24834757 14112 587166 81381472 13.006717084391 5261.144701492073 293 0.010721680361835 0.66666666666667 44.651994554015 14.569293119921
487	24848869 24152 57702 81621979 5.026662683071 5290.198767562148 520 1.8660924749929 618.58693639882 37468.518683608 6149896.297993
488	24873021 24790 57702 81621979 5.026662683071 5290.198767562148 520 0.0083307699776469 2.761548823209 167.27017269468 122.56649190834
495	24897811 11021 725189 81454510 19.744311576066 5279.859141960943 297 3.051480119142 202.66666666667 16363.69996565 1742051.911348
496	24908832 14261 725189 81454510 19.744311576066 5279.859141960943 297 0.0079465628102656 0.66666666666667 45.328165861868 14.718677450758
497	24923093 24148 57696 81621973 5.026662681023 5290.1987675601 520 1.8660924749929 618.58693639882 37468.536781844 6149913.5661226
498	24947241 24786 57696 81621973 5.026662681023 5290.1987675601 520 0.0083307699776469 2.761548823209 167.27025349037 122.56683605952
505	24972027 10579 249447 81156533 5.025502638381 5232.521540699191 284 4.6651848528678 202.66666666667 15644.507259689 1694308.8437727
506	24982606 13659 249447 81156533 5.025502638381 5232.521540699191 284 0.012148918887677 0.66666666666667 43.487615907971 14.510007166717
507	24996265 24151 57776 81622053 5.026773710291 5290.198767589368 520 1.8660924749929 618.58693639882 37468.537703438 6149913.6194645
508	25020416 24796 57776 81622053 5.026773710291 5290.198767589368 520 0.0083307699776469 2.761548823209 167.27025760464 122.56683712262
515	25045212 199170 53381 81636607 5.033062170092 5293.033062170092 5289 285600 285824 1510547808 4.3141514299699e+14
516	25244382 178014 53381 81636607 5.033062170092 5293.033062170092 5289 25 26 132267 3307767
517	25422396 24109 57770 81622047 5.026662706055 5290.198767585132 520 1.8660908893036 618.58693639882 37468.581822412 6149929.6326977
518	25446505 24759 57770 81622047 5.026662706055 5290.198767585132 520 0.0083307628986767 2.761548823209 167.27045456434 122.5671562639
525	25471264 7855 715307 81369793 9 5259 351 12.8 202.66666666667 19926.933333333 2252961.7066667
526	25479119 12374 715307 81369793 9 5259 351 0.033333333333333 0.66666666666667 55.983333333333 20.098333333333
527	25491493 24161 57738 81622015 5.026662699382 5290.198767578459 520 1.8660924749929 618.66040021753 37468.659221056 6150029.1276563
528	25515654 24807 57738 81622015 5.026662699382 5290.198767578459 520 0.0083307699776469 2.7618767866854 167.270800094 122.5691391832
535	25540461 56859 57619 81625458 5.025580294336 5291.228365438851 1225 13.019066022921 11243669.30937 1517705393.1701 7.3692249940528e+15
536	25597320 57379 57619 81625458 5.025580294336 5291.228365438851 1225 0.025427863326017 925.88844456686 125861.78753981 50402878.951676
537	25654699 202672 53424 81634938 5.033336201811 5292.713336201811 5283 279327.37716783 762435.74106901 1589619821.6479 4.9197458470443e+14
538	25857371 183408 53424 81634938 5.033336201811 5292.713336201811 5283 25 935.37645441946 289863.53491719 67535350.996858
545	26040779 202672 53426 81634940 5.033336201811 5292.713336201811 5283 279327.37716783 762435.74106901 1589619821.6479 4.9197458470443e+14
546	26243451 183408 53426 81634940 5.033336201811 5292.713336201811 5283 25 935.37645441946 289863.53491719 67535350.996858
547	26426859 56859 57617 81625456 5.025580294336 5291.228365438851 1225 13.019066022921 11243669.30937 1517705393.1701 7.3692249940528e+15
548	26483718 57379 57617 81625456 5.025580294336 5291.228365438851 1225 0.025427863326017 925.88844456686 125861.78753981 50402878.951676
75	26541097 97040 81637049 84183707 5294.089407798477 5404.969407798477 2773 1400 1400 3882200 5435080000
76	26638137 97055 81637366 84183935 5294.114829292139 5404.994829292139 2773 1400 1400 3882200 5435080000
77	26735192 124745 81637049 84183707 5294.089407798477 5404.969407798477 2773 0.016345628385 0.077657624739 45.616383070228 0.75612040663044
94	26859937 256 81640884 83748308 5294.604036825264 5390.158824300796 8 1 1 8 8
95	26860193 300 81640884 83748308 5294.604036825264 5390.158824300796 8 137262 1765528 8087811 11292558811053
96	26860493 360 81640884 83748308 5294.604036825264 5390.158824300796 8 0.018340337886 0.018403337886 0.146983703088 0.0027005290275577
123	26860853 308 81685986 84127844 5294.882352066705 5395.189758594793 8 137262 1765528 8087811 11292558811053
124	26861161 262 81640305 83747737 5294.585669487378 5390.14042096291 8 1 1 8 8
125	26861423 368 81685986 84127844 5294.882352066705 5395.189758594793 8 0.256360743664 5.308124255259 26.297345071261 116.06430384364
126	26861791 527 81639957 84127844 5294.55620208647 5395.189758594793 16 0 1 8 8
138	26862318 34 82468426 82468426 5337.526234297499 5337.526234297499 1 61 61 61 3721