file 27667237 1471641972                                        
version 2
run _14to17off-4-20160819-23:19:27-5061
attr configname _14to17off
attr datetime 20160819-23:19:27
attr experiment _14to17off
attr inifile omnetpp.ini
attr iterationvars $0=14
attr iterationvars2 "$0=14, $repetition=4"
attr measurement $0=14
attr network University
attr processid 5061
attr repetition 4
attr replication #4
attr resultdir results
attr runnumber 4
attr seedset 4

vector 292  University.whostVideoConf.udpApp[0]  sentPk:vector(packetBytes)  ETV
attr interpolationmode  none
attr source  sentPk
attr title  "packets sent, vector(packetBytes)"
vector 76  University.profLaptop.udpApp[0]  sentPk:vector(packetBytes)  ETV
attr interpolationmode  none
attr source  sentPk
attr title  "packets sent, vector(packetBytes)"
vector 75  University.profLaptop.udpApp[0]  rcvdPk:vector(packetBytes)  ETV
attr interpolationmode  none
attr source  rcvdPk
attr title  "packets received, vector(packetBytes)"
vector 77  University.profLaptop.udpApp[0]  rcvdPkLifetime:vector  ETV
attr interpolationmode  none
attr source  messageAge(rcvdPk)
attr title  "received packet lifetime, vector"
attr unit  s
vector 515  University.whostVideoConf.wlan[0].outputHook[0]  "thruput (bit/sec)"  ETV
vector 516  University.whostVideoConf.wlan[0].outputHook[0]  packet/sec  ETV
vector 537  University.accessPoint.wlan[0].inputHook[0]  "thruput (bit/sec)"  ETV
vector 538  University.accessPoint.wlan[0].inputHook[0]  packet/sec  ETV
vector 545  University.accessPoint.eth[0].outputHook[0]  "thruput (bit/sec)"  ETV
vector 546  University.accessPoint.eth[0].outputHook[0]  packet/sec  ETV
vector 333  University.remoteR.eth[0].inputHook[0]  "thruput (bit/sec)"  ETV
vector 334  University.remoteR.eth[0].inputHook[0]  packet/sec  ETV
vector 339  University.remoteR.ppp[0].outputHook[0]  "thruput (bit/sec)"  ETV
vector 340  University.remoteR.ppp[0].outputHook[0]  packet/sec  ETV
vector 363  University.profLaptop.ppp[0].outputHook[0]  "thruput (bit/sec)"  ETV
vector 364  University.profLaptop.ppp[0].outputHook[0]  packet/sec  ETV
vector 349  University.mainR.ppp[1].inputHook[0]  "thruput (bit/sec)"  ETV
vector 350  University.mainR.ppp[1].inputHook[0]  packet/sec  ETV
vector 347  University.mainR.ppp[1].outputHook[0]  "thruput (bit/sec)"  ETV
vector 348  University.mainR.ppp[1].outputHook[0]  packet/sec  ETV
vector 345  University.mainR.ppp[0].inputHook[0]  "thruput (bit/sec)"  ETV
vector 346  University.mainR.ppp[0].inputHook[0]  packet/sec  ETV
vector 365  University.profLaptop.ppp[0].inputHook[0]  "thruput (bit/sec)"  ETV
vector 366  University.profLaptop.ppp[0].inputHook[0]  packet/sec  ETV
vector 222  University.whttpStudents[8].tcpApp[0]  numActiveSessions:vector  ETV
attr interpolationmode  sample-hold
attr source  sum(connect)
attr title  "number of active sessions, vector"
vector 351  University.mainR.ppp[2].outputHook[0]  "thruput (bit/sec)"  ETV
vector 352  University.mainR.ppp[2].outputHook[0]  packet/sec  ETV
vector 369  University.Server.ppp[0].inputHook[0]  "thruput (bit/sec)"  ETV
vector 370  University.Server.ppp[0].inputHook[0]  packet/sec  ETV
vector 367  University.Server.ppp[0].outputHook[0]  "thruput (bit/sec)"  ETV
vector 368  University.Server.ppp[0].outputHook[0]  packet/sec  ETV
vector 353  University.mainR.ppp[2].inputHook[0]  "thruput (bit/sec)"  ETV
vector 354  University.mainR.ppp[2].inputHook[0]  packet/sec  ETV
vector 455  University.whttpStudents[8].wlan[0].outputHook[0]  "thruput (bit/sec)"  ETV
vector 456  University.whttpStudents[8].wlan[0].outputHook[0]  packet/sec  ETV
vector 395  University.whttpStudents[2].wlan[0].outputHook[0]  "thruput (bit/sec)"  ETV
vector 396  University.whttpStudents[2].wlan[0].outputHook[0]  packet/sec  ETV
vector 198  University.whttpStudents[6].tcpApp[0]  numActiveSessions:vector  ETV
attr interpolationmode  sample-hold
attr source  sum(connect)
attr title  "number of active sessions, vector"
vector 331  University.remoteR.eth[0].outputHook[0]  "thruput (bit/sec)"  ETV
vector 332  University.remoteR.eth[0].outputHook[0]  packet/sec  ETV
vector 547  University.accessPoint.eth[0].inputHook[0]  "thruput (bit/sec)"  ETV
vector 548  University.accessPoint.eth[0].inputHook[0]  packet/sec  ETV
vector 535  University.accessPoint.wlan[0].outputHook[0]  "thruput (bit/sec)"  ETV
vector 536  University.accessPoint.wlan[0].outputHook[0]  packet/sec  ETV
vector 427  University.whttpStudents[5].wlan[0].inputHook[0]  "thruput (bit/sec)"  ETV
vector 428  University.whttpStudents[5].wlan[0].inputHook[0]  packet/sec  ETV
vector 477  University.whttpStudents[10].wlan[0].inputHook[0]  "thruput (bit/sec)"  ETV
vector 478  University.whttpStudents[10].wlan[0].inputHook[0]  packet/sec  ETV
vector 387  University.whttpStudents[1].wlan[0].inputHook[0]  "thruput (bit/sec)"  ETV
vector 388  University.whttpStudents[1].wlan[0].inputHook[0]  packet/sec  ETV
vector 397  University.whttpStudents[2].wlan[0].inputHook[0]  "thruput (bit/sec)"  ETV
vector 398  University.whttpStudents[2].wlan[0].inputHook[0]  packet/sec  ETV
vector 417  University.whttpStudents[4].wlan[0].inputHook[0]  "thruput (bit/sec)"  ETV
vector 418  University.whttpStudents[4].wlan[0].inputHook[0]  packet/sec  ETV
vector 497  University.whttpStudents[12].wlan[0].inputHook[0]  "thruput (bit/sec)"  ETV
vector 498  University.whttpStudents[12].wlan[0].inputHook[0]  packet/sec  ETV
vector 467  University.whttpStudents[9].wlan[0].inputHook[0]  "thruput (bit/sec)"  ETV
vector 468  University.whttpStudents[9].wlan[0].inputHook[0]  packet/sec  ETV
vector 527  University.whostFTP.wlan[0].inputHook[0]  "thruput (bit/sec)"  ETV
vector 528  University.whostFTP.wlan[0].inputHook[0]  packet/sec  ETV
vector 457  University.whttpStudents[8].wlan[0].inputHook[0]  "thruput (bit/sec)"  ETV
vector 458  University.whttpStudents[8].wlan[0].inputHook[0]  packet/sec  ETV
vector 447  University.whttpStudents[7].wlan[0].inputHook[0]  "thruput (bit/sec)"  ETV
vector 448  University.whttpStudents[7].wlan[0].inputHook[0]  packet/sec  ETV
vector 487  University.whttpStudents[11].wlan[0].inputHook[0]  "thruput (bit/sec)"  ETV
vector 488  University.whttpStudents[11].wlan[0].inputHook[0]  packet/sec  ETV
vector 407  University.whttpStudents[3].wlan[0].inputHook[0]  "thruput (bit/sec)"  ETV
vector 408  University.whttpStudents[3].wlan[0].inputHook[0]  packet/sec  ETV
vector 377  University.whttpStudents[0].wlan[0].inputHook[0]  "thruput (bit/sec)"  ETV
vector 378  University.whttpStudents[0].wlan[0].inputHook[0]  packet/sec  ETV
vector 517  University.whostVideoConf.wlan[0].inputHook[0]  "thruput (bit/sec)"  ETV
vector 518  University.whostVideoConf.wlan[0].inputHook[0]  packet/sec  ETV
vector 507  University.whttpStudents[13].wlan[0].inputHook[0]  "thruput (bit/sec)"  ETV
vector 508  University.whttpStudents[13].wlan[0].inputHook[0]  packet/sec  ETV
vector 437  University.whttpStudents[6].wlan[0].inputHook[0]  "thruput (bit/sec)"  ETV
vector 438  University.whttpStudents[6].wlan[0].inputHook[0]  packet/sec  ETV
vector 475  University.whttpStudents[10].wlan[0].outputHook[0]  "thruput (bit/sec)"  ETV
vector 476  University.whttpStudents[10].wlan[0].outputHook[0]  packet/sec  ETV
vector 435  University.whttpStudents[6].wlan[0].outputHook[0]  "thruput (bit/sec)"  ETV
vector 436  University.whttpStudents[6].wlan[0].outputHook[0]  packet/sec  ETV
vector 138  University.whttpStudents[1].tcpApp[0]  numActiveSessions:vector  ETV
attr interpolationmode  sample-hold
attr source  sum(connect)
attr title  "number of active sessions, vector"
vector 385  University.whttpStudents[1].wlan[0].outputHook[0]  "thruput (bit/sec)"  ETV
vector 386  University.whttpStudents[1].wlan[0].outputHook[0]  packet/sec  ETV
vector 525  University.whostFTP.wlan[0].outputHook[0]  "thruput (bit/sec)"  ETV
vector 526  University.whostFTP.wlan[0].outputHook[0]  packet/sec  ETV
vector 405  University.whttpStudents[3].wlan[0].outputHook[0]  "thruput (bit/sec)"  ETV
vector 406  University.whttpStudents[3].wlan[0].outputHook[0]  packet/sec  ETV
vector 465  University.whttpStudents[9].wlan[0].outputHook[0]  "thruput (bit/sec)"  ETV
vector 466  University.whttpStudents[9].wlan[0].outputHook[0]  packet/sec  ETV
vector 495  University.whttpStudents[12].wlan[0].outputHook[0]  "thruput (bit/sec)"  ETV
vector 496  University.whttpStudents[12].wlan[0].outputHook[0]  packet/sec  ETV
vector 186  University.whttpStudents[5].tcpApp[0]  numActiveSessions:vector  ETV
attr interpolationmode  sample-hold
attr source  sum(connect)
attr title  "number of active sessions, vector"
vector 282  University.whttpStudents[13].tcpApp[0]  numActiveSessions:vector  ETV
attr interpolationmode  sample-hold
attr source  sum(connect)
attr title  "number of active sessions, vector"
vector 425  University.whttpStudents[5].wlan[0].outputHook[0]  "thruput (bit/sec)"  ETV
vector 426  University.whttpStudents[5].wlan[0].outputHook[0]  packet/sec  ETV
vector 505  University.whttpStudents[13].wlan[0].outputHook[0]  "thruput (bit/sec)"  ETV
vector 506  University.whttpStudents[13].wlan[0].outputHook[0]  packet/sec  ETV
vector 126  University.whttpStudents[0].tcpApp[0]  numActiveSessions:vector  ETV
attr interpolationmode  sample-hold
attr source  sum(connect)
attr title  "number of active sessions, vector"
vector 124  University.whttpStudents[0].tcpApp[0]  sentPk:vector(packetBytes)  ETV
attr interpolationmode  none
attr source  sentPk
attr title  "packets sent, vector(packetBytes)"
vector 94  University.Server.tcpApp[0]  rcvdPk:vector(packetBytes)  ETV
attr interpolationmode  none
attr source  rcvdPk
attr title  "packets received, vector(packetBytes)"
vector 96  University.Server.tcpApp[0]  endToEndDelay:vector  ETV
attr interpolationmode  none
attr source  messageAge(rcvdPk)
attr title  "end-to-end delay, vector"
attr unit  s
vector 95  University.Server.tcpApp[0]  sentPk:vector(packetBytes)  ETV
attr interpolationmode  none
attr source  sentPk
attr title  "packets sent, vector(packetBytes)"
vector 375  University.whttpStudents[0].wlan[0].outputHook[0]  "thruput (bit/sec)"  ETV
vector 376  University.whttpStudents[0].wlan[0].outputHook[0]  packet/sec  ETV
vector 343  University.mainR.ppp[0].outputHook[0]  "thruput (bit/sec)"  ETV
vector 344  University.mainR.ppp[0].outputHook[0]  packet/sec  ETV
vector 341  University.remoteR.ppp[0].inputHook[0]  "thruput (bit/sec)"  ETV
vector 342  University.remoteR.ppp[0].inputHook[0]  packet/sec  ETV
vector 174  University.whttpStudents[4].tcpApp[0]  numActiveSessions:vector  ETV
attr interpolationmode  sample-hold
attr source  sum(connect)
attr title  "number of active sessions, vector"
vector 415  University.whttpStudents[4].wlan[0].outputHook[0]  "thruput (bit/sec)"  ETV
vector 416  University.whttpStudents[4].wlan[0].outputHook[0]  packet/sec  ETV
vector 258  University.whttpStudents[11].tcpApp[0]  numActiveSessions:vector  ETV
attr interpolationmode  sample-hold
attr source  sum(connect)
attr title  "number of active sessions, vector"
vector 485  University.whttpStudents[11].wlan[0].outputHook[0]  "thruput (bit/sec)"  ETV
vector 486  University.whttpStudents[11].wlan[0].outputHook[0]  packet/sec  ETV
vector 123  University.whttpStudents[0].tcpApp[0]  rcvdPk:vector(packetBytes)  ETV
attr interpolationmode  none
attr source  rcvdPk
attr title  "packets received, vector(packetBytes)"
vector 125  University.whttpStudents[0].tcpApp[0]  endToEndDelay:vector  ETV
attr interpolationmode  none
attr source  messageAge(rcvdPk)
attr title  "end-to-end delay, vector"
attr unit  s
vector 210  University.whttpStudents[7].tcpApp[0]  numActiveSessions:vector  ETV
attr interpolationmode  sample-hold
attr source  sum(connect)
attr title  "number of active sessions, vector"
vector 445  University.whttpStudents[7].wlan[0].outputHook[0]  "thruput (bit/sec)"  ETV
vector 446  University.whttpStudents[7].wlan[0].outputHook[0]  packet/sec  ETV
vector 310  University.whostFTP.tcpApp[0]  numActiveSessions:vector  ETV
attr interpolationmode  sample-hold
attr source  sum(connect)
attr title  "number of active sessions, vector"
vector 246  University.whttpStudents[10].tcpApp[0]  numActiveSessions:vector  ETV
attr interpolationmode  sample-hold
attr source  sum(connect)
attr title  "number of active sessions, vector"
vector 150  University.whttpStudents[2].tcpApp[0]  numActiveSessions:vector  ETV
attr interpolationmode  sample-hold
attr source  sum(connect)
attr title  "number of active sessions, vector"
vector 162  University.whttpStudents[3].tcpApp[0]  numActiveSessions:vector  ETV
attr interpolationmode  sample-hold
attr source  sum(connect)
attr title  "number of active sessions, vector"
vector 234  University.whttpStudents[9].tcpApp[0]  numActiveSessions:vector  ETV
attr interpolationmode  sample-hold
attr source  sum(connect)
attr title  "number of active sessions, vector"
vector 270  University.whttpStudents[12].tcpApp[0]  numActiveSessions:vector  ETV
attr interpolationmode  sample-hold
attr source  sum(connect)
attr title  "number of active sessions, vector"
75	12982 4492386 48751 64734265 5.034199603138 5199.194199603138 129855 1400 1400 181797000 254515800000
76	4505368 4492680 48720 64734225 5.021889290129 5199.181889290129 129855 1400 1400 181797000 254515800000
77	8998048 5790583 48751 64734069 5.034199603138 5199.154199603138 129854 0.016345635116 0.135235226012 2127.1274058261 34.889639046517
94	14788631 6267 188432 64094171 29.336355201451 5171.874123887291 199 1 1 199 199
95	14794898 7291 188432 64094171 29.336355201451 5171.874123887291 199 4183 4266825 153234144 2.2836394437286e+14
96	14802189 8854 188432 64094171 29.336355201451 5171.874123887291 199 0.113174334642 0.114453121496 22.529848167466 2.5507270661957
123	14811043 7460 659221 63952738 58.634954150119 5146.3888853508 198 4183 4266825 150662277 2.2174944450717e+14
124	14818503 6467 187555 64093137 29.223153866809 5171.760922552649 199 1 1 199 199
125	14824970 9045 659221 63952738 58.634954150119 5146.3888853508 198 0.388596614498 37.733989977514 1953.3802244789 51724.820843653
126	14834015 12912 185821 64091803 29.029696659559 5171.569059422111 397 0 1 199 199
138	14846927 1892 121818 63683758 17.946460977684 5134.785707713174 57 1 57 1653 63365
150	14848819 1962 782293 64040108 80.812688765093 5162.151895144469 59 1 59 1770 70210
162	14850781 1868 784188 64583240 81.136237874523 5178.597326805696 56 1 56 1596 60116
174	14852649 1966 487683 64648151 35.023297106685 5187.505257739658 59 1 59 1770 70210
186	14854615 1927 149081 63816768 22.669901653632 5143.18190559976 58 1 58 1711 66729
198	14856542 1928 92564 64692563 12.741980329155 5193.567028156595 58 1 58 1711 66729
210	14858470 1861 675415 64687207 61.475897235917 5192.85503884732 56 1 56 1596 60116
222	14860331 1929 61924 64647328 7.457938858888 5187.455494286118 58 1 58 1711 66729
234	14862260 1899 791478 64281886 82.437701362592 5173.791987010537 57 1 57 1653 63365
246	14864159 1936 779052 64085997 80.235713533885 5170.544230821948 58 1 58 1711 66729
258	14866095 1839 575382 62914641 47.077755163083 5094.673155964282 55 1 55 1540 56980
270	14867934 1936 818473 63987747 87.145351884966 5152.626299539147 58 1 58 1711 66729
282	14869870 1969 152277 64643869 23.148151801315 5186.966414698937 59 1 59 1770 70210
292	14871839 4622534 48565 64734070 5.017853968022 5199.177853968022 129855 1400 1400 181797000 254515800000
310	19494373 1414 750143 64479213 75 5175 69 1 69 2415 111895
331	19495787 96684 92650 64726478 7.458558863426 5196.949388698895 2079 5.4022768718809 10185765.689316 1042394112.3393 5.2111868300036e+15
332	19592471 96967 92650 64726478 7.458558863426 5196.949388698895 2079 0.024117307463754 848.97780315527 87626.59813892 36266124.19674
333	19689438 197191 54258 64733029 5.018242936472 5198.018242936472 5190 275208.61470562 558153.43614032 1517488315.6585 4.473050172483e+14
334	19886629 177491 54258 64733029 5.018242936472 5198.018242936472 5190 25 876.76348995361 239093.82025196 46036723.737261
339	20064120 197190 54260 64733031 5.018242936472 5198.018242936472 5190 275208.61470562 558153.43614032 1517382883.0059 4.4724327692002e+14
340	20261310 177491 54260 64733031 5.018242936472 5198.018242936472 5190 25 876.76348995361 238623.13876703 45992128.771515
341	20438801 86547 204809 64726476 29.223077858453 5196.949388698895 1860 15.784796110226 10185765.689316 1016336362.3178 5.3403800055376e+15
342	20525348 86649 204809 64726476 29.223077858453 5196.949388698895 1860 0.049327487844456 848.97780315527 85154.460999124 37142099.639748
343	20611997 86512 204518 64726429 29.213041191787 5196.938384032229 1860 15.784798186558 10748701.947663 1117661448.1197 7.6596788553383e+15
344	20698509 86621 204518 64726429 29.213041191787 5196.938384032229 1860 0.049327494332992 895.72516230523 93609.687238972 53265418.598154
345	20785130 197171 54331 64733102 5.029199603138 5198.029199603138 5190 277220.15990566 558425.48146799 1517379274.3858 4.4723870660694e+14
346	20982301 177455 54331 64733102 5.029199603138 5198.029199603138 5190 25 877.68798463527 238613.10251899 45994236.152315
347	21159756 195284 54326 64733097 5.026889290129 5198.026889290129 5194 296800 296800 1541579200 4.5754070656e+14
348	21355040 174508 54326 64733097 5.026889290129 5198.026889290129 5194 50 50 259700 12985000
349	21529548 195284 54323 64733094 5.026889290129 5198.026889290129 5194 285600 285600 1483406400 4.2366086784e+14
350	21724832 174508 54323 64733094 5.026889290129 5198.026889290129 5194 25 25 129850 3246250
351	21899340 155547 62652 64726844 5.469652806151 5196.960218048939 3357 78.131109090151 276052.72943867 34594517.456139 3560519018863.6
352	22054887 155941 62652 64726844 5.469652806151 5196.960218048939 3357 0.24415971590672 861.66516793213 105321.71466457 34597731.898777
353	22210828 149296 63568 64731899 5.469652806151 5197.712733941045 3222 74.584788620218 10716523.647831 1218870695.4508 7.005793928155e+15
354	22360124 149802 63568 64731899 5.469652806151 5197.712733941045 3222 0.21188860403471 896.9259836058 107198.95670427 49088676.056481
363	22509926 195284 54318 64733089 5.021889290129 5198.021889290129 5194 285600 285600 1483406400 4.2366086784e+14
364	22705210 174508 54318 64733089 5.021889290129 5198.021889290129 5194 25 25 129850 3246250
365	22879718 195284 54338 64733109 5.031889290129 5198.031889290129 5194 296800 296800 1541579200 4.5754070656e+14
366	23075002 174508 54338 64733109 5.031889290129 5198.031889290129 5194 50 50 259700 12985000
367	23249510 149134 63117 64731448 5.400384475232 5197.643348810126 3222 74.584793677392 10725696.490594 1218864197.357 7.0059982840717e+15
368	23398644 149645 63117 64731448 5.400384475232 5197.643348810126 3222 0.21188861840168 897.68936446014 107198.35418799 49090061.916859
369	23548289 155427 63113 64727457 5.572022415726 5197.062586378514 3357 78.131096881213 276052.72943867 34594515.393534 3560518482392.7
370	23703716 155825 63113 64727457 5.572022415726 5197.062586378514 3357 0.24415967775379 861.66516793213 105321.70808665 34597726.648421
375	23859541 88385 198461 64733388 29.029696659559 5197.91773425327 1906 4.6590028575753 274778.17072297 29252852.650134 3324372017156.6
376	23947926 88534 198461 64733388 29.029696659559 5197.91773425327 1906 0.014559383929923 858.68178350928 91387.653534561 32463853.635698
377	24036460 96487 92825 64726603 7.459647091782 5196.94979686725 2079 5.4024087555967 10037182.260793 1041135877.8961 5.0104525674938e+15
378	24132947 96703 92825 64726603 7.459647091782 5196.94979686725 2079 0.024117896230342 836.5957758633 87521.629601623 34871235.799216
385	24229650 10474 138603 64592034 17.946460977684 5155.785707713174 284 2.7333413410448 202.66666666667 15225.097583248 1537010.0353013
386	24240124 13613 138603 64592034 17.946460977684 5155.785707713174 284 0.0071180764089709 0.66666666666667 41.560194641969 12.382639819488
387	24253737 17068 92765 63349921 7.459647069497 5111.038596175162 368 1.8661018484981 745.97827351397 32836.731835681 7112028.3120094
388	24270805 17521 92765 63349921 7.459647069497 5111.038596175162 368 0.0083308118236521 3.330260149616 146.59255283786 141.74163568258
395	24288326 10941 84392 64616410 5.287903008964 5171.151895144469 297 3.6015661277147 202.66666666667 15733.473023017 1552931.0637724
396	24299267 14243 84392 64616410 5.287903008964 5171.151895144469 297 0.0093790784575904 0.66666666666667 42.668886325727 12.26708177933
397	24313510 17067 92771 63349927 7.459647073453 5111.038596179118 368 1.8661018484981 745.97827351397 32836.805838481 7112095.038865
398	24330577 17517 92771 63349927 7.459647073453 5111.038596179118 368 0.0083308118236521 3.330260149616 146.5928832075 141.7429655386
405	24348094 10353 139598 64648804 9.093746190403 5181.597326805696 280 3.5241237044275 202.66666666667 14791.639118638 1462069.2969995
406	24358447 13462 139598 64648804 9.093746190403 5181.597326805696 280 0.00917740548028 0.66666666666667 40.120148264464 11.520684873698
407	24371909 17056 92819 63349975 7.459647090132 5111.038596195797 368 1.8661018484981 745.97827351397 32836.844033643 7112105.6239517
408	24388965 17497 92819 63349975 7.459647090132 5111.038596195797 368 0.0083308118236521 3.330260149616 146.59305372162 141.74317649776
415	24406462 10765 509395 64714540 35.023297106685 5190.505257739658 292 4.9690419377533 202.66666666667 15488.770101942 1518798.2678626
416	24417227 14029 509395 64714540 35.023297106685 5190.505257739658 292 0.012940213379566 0.66666666666667 41.876908755234 11.850321352531
417	24431256 17061 92777 63349933 7.459647074563 5111.038596180228 368 1.8661018484981 745.97827351397 32836.872431946 7112195.2267099
418	24448317 17506 92777 63349933 7.459647074563 5111.038596180228 368 0.0083308118236521 3.330260149616 146.59318049976 141.74496226702
425	24465823 10650 166827 64653234 22.669901653632 5164.18190559976 289 4.4259677890899 202.66666666667 15333.54165402 1499682.3024007
426	24476473 13870 166827 64653234 22.669901653632 5164.18190559976 289 0.011525957784088 0.66666666666667 41.588671832089 11.732899445417
427	24490343 17060 92753 63349909 7.459647063305 5111.03859616897 368 1.8661018484981 746.01926674485 32836.857863112 7112161.83606
428	24507403 17504 92753 63349909 7.459647063305 5111.03859616897 368 0.0083308118236521 3.3304431551109 146.59311546032 141.74429679648
435	24524907 10551 109549 64715297 12.741980329155 5193.567028156595 286 4.6095779454814 202.66666666667 15159.551943957 1492761.4430924
436	24535458 13729 109549 64715297 12.741980329155 5193.567028156595 286 0.012004109233024 0.66666666666667 41.028526755397 11.675664690738
437	24549187 17052 92908 63350020 7.459647092111 5111.038596197776 368 1.8661018484981 745.97827351397 32836.895220677 7112177.6699222
438	24566239 17495 92908 63350020 7.459647092111 5111.038596197776 368 0.0083308118236521 3.330260149616 146.59328223516 141.74461236293
445	24583734 10208 692401 64709200 61.475897235917 5192.85503884732 276 3.5107976468385 202.66666666667 14867.531126702 1529099.5011377
446	24593942 13247 692401 64709200 61.475897235917 5192.85503884732 276 0.0091427022053085 0.66666666666667 40.675849240675 12.461249377664
447	24607189 17063 92807 63349963 7.459647079345 5111.03859618501 368 1.8661018484981 745.97827351397 32836.811822817 7112113.93614
448	24624252 17499 92807 63349963 7.459647079345 5111.03859618501 368 0.0083308118236521 3.330260149616 146.59290992329 141.7433421584
455	24641751 10634 79699 64714021 7.457938858888 5190.455494286118 287 3.9769972247849 202.66666666667 15430.626107957 1560338.8480996
456	24652385 13779 79699 64714021 7.457938858888 5190.455494286118 287 0.010356763606211 0.66666666666667 42.116188273609 12.560328415106
457	24666164 17069 92801 63349957 7.459722076903 5111.038725182568 368 1.8661018484981 745.97827351397 32836.815211169 7112101.4913665
458	24683233 17510 92801 63349957 7.459722076903 5111.038725182568 368 0.0083308118236521 3.330260149616 146.59292504986 141.74309413597
465	24700743 10558 140043 64701382 9.13540069448 5182.791987010537 286 2.3040386484836 202.66666666667 15178.073962277 1498722.8223827
466	24711301 13730 140043 64701382 9.13540069448 5182.791987010537 286 0.0060001006470926 0.66666666666667 41.264938808107 11.857723852177
467	24725031 17057 92789 63349945 7.459647075226 5111.038596180891 368 1.8661018484981 745.97827351397 32836.547680398 7111829.0398157
468	24742088 17508 92789 63349945 7.459647075226 5111.038596180891 368 0.0083308118236521 3.330260149616 146.59173071606 141.73766421827
475	24759596 10834 97951 64678086 7.648379099281 5179.544230821948 292 4.1945088688437 202.66666666667 15565.342634231 1544708.7242155
476	24770430 14030 97951 64678086 7.648379099281 5179.544230821948 292 0.01092320017928 0.66666666666667 42.39732680053 12.303397370798
477	24784460 17060 92759 63349915 7.459647064085 5111.03859616975 368 1.8661018484981 745.97827351397 32836.817381054 7112080.812496
478	24801520 17508 92759 63349915 7.459647064085 5111.03859616975 368 0.0083308118236521 3.330260149616 146.59293473685 141.74268200925
485	24819028 10177 597497 63710709 47.077755163083 5115.673155964282 274 3.9997882232057 202.66666666667 14825.791713797 1551982.6490225
486	24829205 13202 597497 63710709 47.077755163083 5115.673155964282 274 0.010416115164598 0.66666666666667 40.755249535044 12.881904961684
487	24842407 17053 92813 63349969 7.459647085315 5111.03859619098 368 1.8661018484981 745.90375190776 32836.77104659 7111995.5240628
488	24859460 17495 92813 63349969 7.459647085315 5111.03859619098 368 0.0083308118236521 3.3299274638739 146.59272788656 141.74098222383
495	24876955 10801 141070 64723038 9.288120600875 5173.626299539147 292 4.6177279669619 202.66666666667 15607.777847915 1598581.5164848
496	24887756 14041 141070 64723038 9.288120600875 5173.626299539147 292 0.012025333247297 0.66666666666667 42.683225838762 13.057326552039
497	24901797 17058 92783 63349939 7.45964707461 5111.038596180275 368 1.8661018484981 745.97827351397 32836.795917528 7112086.1627513
498	24918855 17510 92783 63349939 7.45964707461 5111.038596180275 368 0.0083308118236521 3.330260149616 146.59283891753 141.74278863902
505	24936365 10821 169663 64710003 23.148151801315 5189.966414698937 292 3.6157244604187 202.66666666667 15852.551433091 1644114.1082603
506	24947186 14051 169663 64710003 23.148151801315 5189.966414698937 292 0.0094159491156736 0.66666666666667 43.492659661423 13.541707309053
507	24961237 17071 92839 63350026 7.459647096318 5111.038596201983 368 1.8661018484981 745.97827351397 32836.71876398 7112017.5397704
508	24978308 17513 92839 63350026 7.459647096318 5111.038596201983 368 0.0083308118236521 3.330260149616 146.59249448205 141.74142099351
515	24995821 195284 54163 64732934 5.017853968022 5198.017853968022 5194 285600 285824 1483415136 4.2366585980006e+14
516	25191105 174508 54163 64732934 5.017853968022 5198.017853968022 5194 25 26 129889 3248239
517	25365613 17052 92831 63350014 7.459647091876 5111.038596197541 368 1.8661004027079 745.97827351397 32836.991870823 7112218.7127454
518	25382665 17507 92831 63350014 7.459647091876 5111.038596197541 368 0.0083308053692315 3.330260149616 146.59371370903 141.74543034011
525	25400172 7650 138976 64710685 9 5184 346 12.8 202.66666666667 18850.933333333 1942337.2088889
526	25407822 12180 138976 64710685 9 5184 346 0.033333333333333 0.66666666666667 51.65 16.051944444444
527	25420002 17073 92795 63349951 7.459647075578 5111.038596181243 368 1.8661018484981 745.97827351397 32836.726764284 7112039.4495033
528	25437075 17516 92795 63349951 7.459647075578 5111.038596181243 368 0.0083308118236521 3.330260149616 146.5925301977 141.74185765113
535	25454591 96614 92676 64726485 7.458564673426 5196.949510828895 2079 12.348061373794 10308018.49297 1055064238.9675 5.3372130740253e+15
536	25551205 96955 92676 64726485 7.458564673426 5196.949510828895 2079 0.024117307370691 848.97780315527 87626.606103772 36266377.204691
537	25648160 197194 54203 64732974 5.018128006472 5198.018128006472 5190 275422.35000789 721550.62356818 1538251414.9402 4.6513543445918e+14
538	25845354 177495 54203 64732974 5.018128006472 5198.018128006472 5190 25 876.66785375561 239093.20366028 46034534.397467
545	26022849 197194 54205 64732976 5.018128006472 5198.018128006472 5190 275422.35000789 721550.62356818 1538251414.9402 4.6513543445918e+14
546	26220043 177495 54205 64732976 5.018128006472 5198.018128006472 5190 25 876.66785375561 239093.20366028 46034534.397467
547	26397538 96614 92674 64726483 7.458564673426 5196.949510828895 2079 12.348061373794 10308018.49297 1055064238.9675 5.3372130740253e+15
548	26494152 96955 92674 64726483 7.458564673426 5196.949510828895 2079 0.024117307370691 848.97780315527 87626.606103772 36266377.204691
75	26591107 180059 64734524 67019757 5199.234199603138 5404.994199603138 5145 1400 1400 7203000 10084200000
76	26771166 180075 64734493 67019726 5199.221889290129 5404.981889290129 5145 1400 1400 7203000 10084200000
77	26951241 231543 64734265 67019757 5199.194199603138 5404.994199603138 5146 0.016345635116 0.066648898094 84.355940974174 1.3867526963588
94	27182784 287 64996592 66862076 5226.949775203475 5380.357467020571 9 1 1 9 9
95	27183071 330 64996592 66862076 5226.949775203475 5380.357467020571 9 30817 1298967 4347062 4053373080704
96	27183401 404 64996592 66862076 5226.949775203475 5380.357467020571 9 0.113174334642 0.114444121496 1.020000798632 0.11560157175869
123	27183805 377 64889005 66884338 5207.822245718643 5381.424210001966 10 30817 2571867 6918929 10667872946393
124	27184182 296 64995563 66861029 5226.836582868833 5380.244265685929 9 1 1 9 9
125	27184478 461 64889005 66884338 5207.822245718643 5381.424210001966 10 0.974855395425 36.061323165994 93.214660660062 2299.9517675732
126	27184939 624 64889005 66884338 5207.822245718643 5381.424210001966 19 0 1 9 9
138	27185563 68 65016509 66636684 5229.142876057849 5354.972892148342 2 58 59 117 6845
150	27185631 68 65080731 66176942 5240.307693766448 5326.995765280278 2 60 61 121 7321