version 2
run General-0-20160818-12:21:55-25459
attr configname General
attr datetime 20160818-12:21:55
attr experiment General
attr inifile omnetpp.ini
attr iterationvars ""
attr iterationvars2 $repetition=0
attr measurement ""
attr network University
attr processid 25459
attr repetition 0
attr replication #0
attr resultdir results
attr runnumber 0
attr seedset 0

vector 142  University.whostFTP.tcpApp[0]  numActiveSessions:vector  ETV
attr interpolationmode  sample-hold
attr source  sum(connect)
attr title  "number of active sessions, vector"
vector 76  University.profLaptop.udpApp[0]  sentPk:vector(packetBytes)  ETV
attr interpolationmode  none
attr source  sentPk
attr title  "packets sent, vector(packetBytes)"
vector 124  University.whostVideoConf.udpApp[0]  sentPk:vector(packetBytes)  ETV
attr interpolationmode  none
attr source  sentPk
attr title  "packets sent, vector(packetBytes)"
vector 123  University.whostVideoConf.udpApp[0]  rcvdPk:vector(packetBytes)  ETV
attr interpolationmode  none
attr source  rcvdPk
attr title  "packets received, vector(packetBytes)"
vector 125  University.whostVideoConf.udpApp[0]  rcvdPkLifetime:vector  ETV
attr interpolationmode  none
attr source  messageAge(rcvdPk)
attr title  "received packet lifetime, vector"
attr unit  s
vector 75  University.profLaptop.udpApp[0]  rcvdPk:vector(packetBytes)  ETV
attr interpolationmode  none
attr source  rcvdPk
attr title  "packets received, vector(packetBytes)"
vector 77  University.profLaptop.udpApp[0]  rcvdPkLifetime:vector  ETV
attr interpolationmode  none
attr source  messageAge(rcvdPk)
attr title  "received packet lifetime, vector"
attr unit  s
vector 140  University.whostFTP.tcpApp[0]  sentPk:vector(packetBytes)  ETV
attr interpolationmode  none
attr source  sentPk
attr title  "packets sent, vector(packetBytes)"
vector 97  University.Server.tcpApp[1]  rcvdPk:vector(packetBytes)  ETV
attr interpolationmode  none
attr source  rcvdPk
attr title  "packets received, vector(packetBytes)"
vector 99  University.Server.tcpApp[1]  endToEndDelay:vector  ETV
attr interpolationmode  none
attr source  messageAge(rcvdPk)
attr title  "end-to-end delay, vector"
attr unit  s
vector 98  University.Server.tcpApp[1]  sentPk:vector(packetBytes)  ETV
attr interpolationmode  none
attr source  sentPk
attr title  "packets sent, vector(packetBytes)"
vector 139  University.whostFTP.tcpApp[0]  rcvdPk:vector(packetBytes)  ETV
attr interpolationmode  none
attr source  rcvdPk
attr title  "packets received, vector(packetBytes)"
vector 141  University.whostFTP.tcpApp[0]  endToEndDelay:vector  ETV
attr interpolationmode  none
attr source  messageAge(rcvdPk)
attr title  "end-to-end delay, vector"
attr unit  s
75	2976	1.067840691763	1400
75	3042	1.068797358429	1400
75	3061	1.069754025095	1400
75	3072	1.070710691761	1400
75	3083	1.071667358427	1400
75	3108	1.072624025093	1400
75	3182	1.073580691759	1400
75	3233	1.074537358425	1400
75	3272	1.075494025091	1400
75	3283	1.076450691757	1400
75	3296	1.077407358423	1400
75	3307	1.078364025089	1400
75	3317	1.079320691755	1400
75	3326	1.080277358421	1400
75	3335	1.081234025087	1400
75	3344	1.082190691753	1400
75	3353	1.083147358419	1400
75	3362	1.084104025085	1400
75	3399	1.085060691751	1400
75	3416	1.086017358417	1400
75	3430	1.086974025083	1400
75	3439	1.087930691749	1400
75	3448	1.088887358415	1400
75	3452	1.089844025081	1400
75	3456	1.090800691747	1400
75	3460	1.091757358413	1400
75	3464	1.093750025078	1400
75	3569	1.130663445427	1400
75	3799	1.170663445427	1400
75	3907	1.210663445427	1400
75	4244	1.250663445427	1400
75	4402	1.290663445427	1400
75	4967	1.330663445427	1400
75	5419	1.370663445427	1400
75	6263	1.410663445427	1400
75	7200	1.450663445427	1400
75	8581	1.490663445427	1400
75	10267	1.532543839434	1400
75	12953	1.574523050139	1400
75	15465	1.613326086266	1400
75	18926	1.653358016557	1400
75	22056	1.69154237494	1400
75	25455	1.732855643574	1400
75	28639	1.772807633227	1400
75	31913	1.813328249154	1400
75	34943	1.851463040506	1400
75	36692	1.890663445427	1400
75	37914	1.930663445427	1400
75	38068	1.970663445427	1400
75	38444	2.011075287849	1400
75	38552	2.050663445427	1400
75	38823	2.090663445427	1400
75	38941	2.130663445427	1400
75	39202	2.170663445427	1400
75	39320	2.210663445427	1400
75	39579	2.250663445427	1400
75	39840	2.290663445427	1400
75	39958	2.330663445427	1400
75	40223	2.370663445427	1400
75	40336	2.410663445427	1400
75	40592	2.450663445427	1400
75	40716	2.490663445427	1400
75	40971	2.530663445427	1400
75	41104	2.570663445427	1400
75	41350	2.610663445427	1400
75	41573	2.650663445427	1400
75	41744	2.690663445427	1400
75	41990	2.730663445427	1400
75	42123	2.770663445427	1400
75	42384	2.810663445427	1400
75	42492	2.850663445427	1400
75	42763	2.890663445427	1400
75	42876	2.930663445427	1400
75	43142	2.970663445427	1400
75	43260	3.010663445427	1400
75	43520	3.050663445427	1400
75	43781	3.090663445427	1400
75	43899	3.130663445427	1400
75	44159	3.170663445427	1400
75	44277	3.210663445427	1400
75	44533	3.250663445427	1400
75	44657	3.290663445427	1400
75	44912	3.330663445427	1400
75	45045	3.370663445427	1400
75	45290	3.410663445427	1400
75	45453	3.450663445427	1400
75	45684	3.490663445427	1400
75	45928	3.530663445427	1400
75	46061	3.570663445427	1400
75	46317	3.610663445427	1400
75	46425	3.650663445427	1400
75	46696	3.690663445427	1400
75	46804	3.730663445427	1400
75	47075	3.770663445427	1400
75	47193	3.810663445427	1400
75	47445	3.850663445427	1400
75	47713	3.890663445427	1400
75	47831	3.930663445427	1400
75	48091	3.970663445427	1400
75	48209	4.010663445427	1400
75	48465	4.051118115042	1400
75	48589	4.090663445427	1400
75	48844	4.130663445427	1400
75	48977	4.170663445427	1400
75	49223	4.210663445427	1400
75	49341	4.250663445427	1400
75	49617	4.290663445427	1400
75	49862	4.330663445427	1400
75	49995	4.370663445427	1400
75	50250	4.410663445427	1400
75	50358	4.450663445427	1400
75	50630	4.490663445427	1400
75	50738	4.530663445427	1400
75	51009	4.570663445427	1400
75	51127	4.610663445427	1400
75	51380	4.650663445427	1400
75	51648	4.690663445427	1400
75	51766	4.730663445427	1400
75	52026	4.770663445427	1400
75	52144	4.810663445427	1400
75	52401	4.851798163586	1400
75	52525	4.890663445427	1400
75	52781	4.930663445427	1400
75	52914	4.970663445427	1400
75	53160	5.010663445427	1400
75	53278	5.050663445427	1400
75	53554	5.090663445427	1400
75	53800	5.130663445427	1400
75	53933	5.170663445427	1400
75	54184	5.210663445427	1400
75	54297	5.250663445427	1400
75	54568	5.290663445427	1400
75	54676	5.330663445427	1400
75	54946	5.370663445427	1400
75	55064	5.410663445427	1400
75	55309	5.450663445427	1400
75	55550	5.490663445427	1400
75	55702	5.530663445427	1400
75	55962	5.570663445427	1400
75	56080	5.610663445427	1400
75	56340	5.650663445427	1400
75	56464	5.690663445427	1400
75	56720	5.730663445427	1400
75	56848	5.770663445427	1400
75	57098	5.810663445427	1400
75	57216	5.850663445427	1400
75	57492	5.890663445427	1400
75	57738	5.930663445427	1400
75	57871	5.970663445427	1400
75	58116	6.010663445427	1400
75	58234	6.050663445427	1400
75	58506	6.090663445427	1400
75	58614	6.130663445427	1400
75	58885	6.170663445427	1400
75	59003	6.210663445427	1400
75	59248	6.250663445427	1400
75	59427	6.290663445427	1400
75	59641	6.330663445427	1400
75	59900	6.370663445427	1400
75	60018	6.410663445427	1400
75	60273	6.450663445427	1400
75	60397	6.490663445427	1400
75	60653	6.530663445427	1400
75	60776	6.570663445427	1400
75	61032	6.610663445427	1400
75	61150	6.650663445427	1400
75	61418	6.690663445427	1400
75	61671	6.730663445427	1400
75	61804	6.770663445427	1400
75	62050	6.810663445427	1400
75	62168	6.850663445427	1400
75	62441	6.891163115042	1400
75	62549	6.930663445427	1400
75	62820	6.970663445427	1400
75	62938	7.010663445427	1400
75	63184	7.050663445427	1400
75	63318	7.090663445427	1400
75	63578	7.130663445427	1400
75	63838	7.170663445427	1400
75	63956	7.210663445427	1400
75	64212	7.250663445427	1400
75	64336	7.290663445427	1400
75	64592	7.330663445427	1400
75	64715	7.370663445427	1400
75	64971	7.410663445427	1400
75	65089	7.450663445427	1400
75	65358	7.490663445427	1400
75	65610	7.530663445427	1400
75	65743	7.570663445427	1400
75	65989	7.610663445427	1400
75	66107	7.650663445427	1400
75	66382	7.691816163586	1400
75	66490	7.730663445427	1400
75	66760	7.770663445427	1400
75	66878	7.810663445427	1400
75	67123	7.850663445427	1400
75	67257	7.890663445427	1400
75	67517	7.930663445427	1400
75	67777	7.970663445427	1400
75	67895	8.010663445427	1400
75	68141	8.050663445427	1400
75	68275	8.090663445427	1400
75	68531	8.130663445427	1400
75	68654	8.170663445427	1400
75	68909	8.210663445427	1400
75	69027	8.250663445427	1400
75	69288	8.290663445427	1400
75	69451	8.330663445427	1400
75	69680	8.370663445427	1400
75	69924	8.410663445427	1400
75	70042	8.450663445427	1400
75	70314	8.490663445427	1400
75	70422	8.530663445427	1400
75	70693	8.570663445427	1400
75	70801	8.610663445427	1400
75	71056	8.650663445427	1400
75	71190	8.690663445427	1400
75	71443	8.730663445427	1400
75	71710	8.770663445427	1400
75	71828	8.810663445427	1400
75	72073	8.850663445427	1400
75	72207	8.890663445427	1400
75	72462	8.93113707171	1400
75	72585	8.970663445427	1400
75	72840	9.010663445427	1400
75	72958	9.050663445427	1400
75	73220	9.090663445427	1400
75	73338	9.130663445427	1400
75	73613	9.170663445427	1400
75	73858	9.210663445427	1400
75	73976	9.250663445427	1400
75	74248	9.290663445427	1400
75	74356	9.330663445427	1400
75	74626	9.370663445427	1400
75	74734	9.410663445427	1400
75	74990	9.450663445427	1400
75	75124	9.490663445427	1400
75	75376	9.530663445427	1400
75	75643	9.570663445427	1400
75	75761	9.610663445427	1400
75	76006	9.650663445427	1400
75	76140	9.690663445427	1400
75	76397	9.731871120254	1400
75	76520	9.770663445427	1400
75	76775	9.810663445427	1400
75	76893	9.850663445427	1400
75	77155	9.890663445427	1400
75	77273	9.930663445427	1400
75	77548	9.970663445427	1400
75	77794	10.010663445427	1400
75	77912	10.050663445427	1400
75	78179	10.090663445427	1400
75	78292	10.130663445427	1400
75	78602	10.170663445427	1400
75	78717	10.210663445427	1400
75	79176	10.250663445427	1400
75	79353	10.290663445427	1400
75	80187	10.330663445427	1400
75	80552	10.370663445427	1400
75	81991	10.410711050527	1400
75	82830	10.450663445427	1400
75	85379	10.497143770837	1400
75	86912	10.530663445427	1400
75	89898	10.571245162359	1400
75	91154	10.610663445427	1400
75	92202	10.651052143969	1400
75	92328	10.690663445427	1400
75	92585	10.730663445427	1400
75	92710	10.770663445427	1400
75	92922	10.810663445427	1400
75	93032	10.850663445427	1400
75	93272	10.890663445427	1400
75	93586	10.930663445427	1400
75	93744	10.970663445427	1400
75	94288	11.010663445427	1400
75	94478	11.050663445427	1400
75	95521	11.09274499889	1400
75	95767	11.130663445427	1400
75	97741	11.173659625771	1400
75	98163	11.210663445427	1400
75	100839	11.25220140665	1400
75	103889	11.305455388772	1400
75	105967	11.331082840248	1400
75	109360	11.371365927414	1400
75	112792	11.412391297038	1400
75	116294	11.45496387878	1400
75	119338	11.491083878756	1400
75	122665	11.531933989188	1400
75	125305	11.571377778019	1400
75	126720	11.610663445427	1400
75	127499	11.650663445427	1400
75	127657	11.690663445427	1400
75	127972	11.730663445427	1400
75	128105	11.770663445427	1400
75	128364	11.810663445427	1400
75	128609	11.850663445427	1400
75	128743	11.890663445427	1400
75	128994	11.930663445427	1400
75	129122	11.970663445427	1400
75	129378	12.010663445427	1400
75	129486	12.050663445427	1400
75	129758	12.090663445427	1400
75	129876	12.130663445427	1400
75	130137	12.170663445427	1400
75	130363	12.210663445427	1400
75	130515	12.250663445427	1400
75	130776	12.290663445427	1400
75	130894	12.330663445427	1400
75	131170	12.370663445427	1400
75	131278	12.410663445427	1400
75	131534	12.450663445427	1400
75	131663	12.490663445427	1400
75	131913	12.530663445427	1400
75	132046	12.570663445427	1400
75	132305	12.610663445427	1400
75	132551	12.650663445427	1400
75	132685	12.690663445427	1400
75	132935	12.730663445427	1400
75	133064	12.770663445427	1400
75	133320	12.810663445427	1400
75	133428	12.850663445427	1400
75	133700	12.890663445427	1400
75	133818	12.930663445427	1400
75	134079	12.970663445427	1400
75	134242	13.010663445427	1400
75	134456	13.050663445427	1400
75	134716	13.090663445427	1400
75	134834	13.130663445427	1400
75	135105	13.170663445427	1400
75	135213	13.210663445427	1400
75	135469	13.250663445427	1400
75	135593	13.290663445427	1400
75	135848	13.330663445427	1400
75	135981	13.370663445427	1400
75	136233	13.410663445427	1400
75	136485	13.450663445427	1400
75	136619	13.490663445427	1400
75	136864	13.530663445427	1400
75	136997	13.570663445427	1400
75	137252	13.611100115042	1400
75	137360	13.650663445427	1400
75	137649	13.690663445427	1400
75	137767	13.730663445427	1400
75	138027	13.770663445427	1400
75	138145	13.810663445427	1400
75	138404	13.850663445427	1400
75	138666	13.890663445427	1400
75	138784	13.930663445427	1400
75	139050	13.970663445427	1400
75	139163	14.010663445427	1400
75	139418	14.050663445427	1400
75	139542	14.090663445427	1400
75	139798	14.130663445427	1400
75	139931	14.170663445427	1400
75	140176	14.210663445427	1400
75	140399	14.250663445427	1400
75	140570	14.290663445427	1400
75	140816	14.330663445427	1400
75	140949	14.370663445427	1400
75	141207	14.410663445427	1400
75	141315	14.450663445427	1400
75	141587	14.490663445427	1400
75	141700	14.530663445427	1400
75	141965	14.570663445427	1400
75	142083	14.610663445427	1400
75	142343	14.650663445427	1400
75	142604	14.690663445427	1400
75	142722	14.730663445427	1400
75	142983	14.770663445427	1400
75	143101	14.810663445427	1400
75	143356	14.850663445427	1400
75	143480	14.890663445427	1400
75	143735	14.930663445427	1400
75	143868	14.970663445427	1400
75	144114	15.010663445427	1400
75	144277	15.050663445427	1400
75	144507	15.090663445427	1400
75	144751	15.130663445427	1400
75	144884	15.170663445427	1400
75	145140	15.210663445427	1400
75	145248	15.250663445427	1400
75	145519	15.290663445427	1400
75	145627	15.330663445427	1400
75	145898	15.370663445427	1400
75	146016	15.410663445427	1400
75	146269	15.450663445427	1400
75	146537	15.490663445427	1400
75	146655	15.530663445427	1400
75	146916	15.570663445427	1400
75	147034	15.610663445427	1400
75	147290	15.651118115042	1400
75	147414	15.690663445427	1400
75	147669	15.730663445427	1400
75	147802	15.770663445427	1400
75	148047	15.810663445427	1400
75	148165	15.850663445427	1400
75	148441	15.890663445427	1400
75	148686	15.930663445427	1400
75	148819	15.970663445427	1400
75	149074	16.010663445427	1400
75	149182	16.050663445427	1400
75	149453	16.090663445427	1400
75	149561	16.130663445427	1400
75	149832	16.170663445427	1400
75	149950	16.210663445427	1400
75	150202	16.250663445427	1400
75	150470	16.290663445427	1400
75	150588	16.330663445427	1400
75	150849	16.370663445427	1400
75	150967	16.410663445427	1400
75	151224	16.451807163586	1400
75	151348	16.490663445427	1400
75	151604	16.530663445427	1400
75	151737	16.570663445427	1400
75	151982	16.610663445427	1400
75	152100	16.650663445427	1400
75	152375	16.690663445427	1400
75	152620	16.730663445427	1400
75	152753	16.770663445427	1400
75	153022	16.810663445427	1400
75	153135	16.850663445427	1400
75	153406	16.890663445427	1400
75	153514	16.930663445427	1400
75	153785	16.970663445427	1400
75	153903	17.010663445427	1400
75	154149	17.050663445427	1400
75	154387	17.090663445427	1400
75	154543	17.130663445427	1400
75	154803	17.170663445427	1400
75	154921	17.210663445427	1400
75	155182	17.250663445427	1400
75	155306	17.290663445427	1400
75	155562	17.330663445427	1400
75	155690	17.370663445427	1400
75	155940	17.410663445427	1400
75	156058	17.450663445427	1400
75	156333	17.490663445427	1400
75	156579	17.530663445427	1400
75	156712	17.570663445427	1400
75	156957	17.610663445427	1400
75	157075	17.650663445427	1400
75	157347	17.690663445427	1400
75	157455	17.730663445427	1400
75	157725	17.770663445427	1400
75	157843	17.810663445427	1400
75	158088	17.850663445427	1400
75	158267	17.890663445427	1400
75	158481	17.930663445427	1400
75	158740	17.970663445427	1400
75	158858	18.010663445427	1400
75	159114	18.050663445427	1400
75	159238	18.090663445427	1400
75	159493	18.130663445427	1400
75	159616	18.170663445427	1400
75	159872	18.210663445427	1400
75	159990	18.250663445427	1400
75	160259	18.290663445427	1400
75	160512	18.330663445427	1400
75	160645	18.370663445427	1400
75	160891	18.410663445427	1400
75	161009	18.450663445427	1400
75	161282	18.491127115042	1400
75	161390	18.530663445427	1400
75	161660	18.570663445427	1400
75	161778	18.610663445427	1400
75	162023	18.650663445427	1400
75	162157	18.690663445427	1400
75	162417	18.730663445427	1400
75	162677	18.770663445427	1400
75	162795	18.810663445427	1400
75	163050	18.850663445427	1400
75	163174	18.890663445427	1400
75	163430	18.930663445427	1400
75	163553	18.970663445427	1400
75	163809	19.010663445427	1400
75	163927	19.050663445427	1400
75	164196	19.090663445427	1400
75	164448	19.130663445427	1400
75	164581	19.170663445427	1400
75	164827	19.210663445427	1400
75	164945	19.250663445427	1400
75	165220	19.291825163586	1400
75	165328	19.330663445427	1400
75	165599	19.370663445427	1400
75	165717	19.410663445427	1400
75	165962	19.450663445427	1400
75	166096	19.490663445427	1400
75	166356	19.530663445427	1400
75	166616	19.570663445427	1400
75	166734	19.610663445427	1400
75	166979	19.650663445427	1400
75	167113	19.690663445427	1400
75	167369	19.730663445427	1400
75	167492	19.770663445427	1400
75	167748	19.810663445427	1400
75	167866	19.850663445427	1400
75	168128	19.890663445427	1400
75	168291	19.930663445427	1400
75	168520	19.970663445427	1400
75	168800	20.010663445427	1400
75	168930	20.050663445427	1400
75	169388	20.090663445427	1400
75	169539	20.130663445427	1400
75	170394	20.17222883752	1400
75	170577	20.210663445427	1400
75	172122	20.253418405039	1400
75	172460	20.290663445427	1400
75	175095	20.331987198565	1400
75	176250	20.370663445427	1400
75	179598	20.415966939096	1400
75	180476	20.450663445427	1400
75	181779	20.490754452329	1400
75	181889	20.530663445427	1400
75	182161	20.570663445427	1400
75	182266	20.610663445427	1400
75	182483	20.650663445427	1400
75	182609	20.690663445427	1400
75	182819	20.730663445427	1400
75	183091	20.770663445427	1400
75	183307	20.810663445427	1400
75	183843	20.850663445427	1400
75	184050	20.890663445427	1400
75	185077	20.930663445427	1400
75	185361	20.970663445427	1400
75	187166	21.01372534618	1400
75	187722	21.050663445427	1400
75	190116	21.091580786201	1400
75	192780	21.139749950182	1400
75	195536	21.173235780483	1400
75	199121	21.21468588511	1400
75	202249	21.251848564179	1400
75	205586	21.292286874295	1400
75	209090	21.334822978921	1400
75	212468	21.376970978893	1400
75	214892	21.410935105907	1400
75	216523	21.45074482546	1400
75	217238	21.490663445427	1400
75	217339	21.530663445427	1400
75	217529	21.570663445427	1400
75	217635	21.610663445427	1400
75	217845	21.650663445427	1400
75	218078	21.690663445427	1400
75	218238	21.730663445427	1400
75	218499	21.770663445427	1400
75	218617	21.810663445427	1400
75	218872	21.850663445427	1400
75	218996	21.890663445427	1400
75	219252	21.930663445427	1400
75	219380	21.970663445427	1400
75	219631	22.010663445427	1400
75	219749	22.050663445427	1400
75	220025	22.090663445427	1400
75	220271	22.130663445427	1400
75	220404	22.170663445427	1400
75	220649	22.210663445427	1400
75	220767	22.250663445427	1400
75	221039	22.290663445427	1400
75	221147	22.330663445427	1400
75	221417	22.370663445427	1400
75	221535	22.410663445427	1400
75	221781	22.450663445427	1400
75	221960	22.490663445427	1400
75	222174	22.530663445427	1400
75	222433	22.570663445427	1400
75	222551	22.610663445427	1400
75	222807	22.650663445427	1400
75	222931	22.690663445427	1400
75	223187	22.730663445427	1400
75	223310	22.770663445427	1400
75	223565	22.810663445427	1400
75	223683	22.850663445427	1400
75	223952	22.890663445427	1400
75	224205	22.930663445427	1400
75	224338	22.970663445427	1400
75	224584	23.010663445427	1400
75	224702	23.050663445427	1400
75	224974	23.091225443407	1400
75	225082	23.130663445427	1400
75	225352	23.170663445427	1400
75	225470	23.210663445427	1400
75	225716	23.250663445427	1400
75	225850	23.290663445427	1400
75	226109	23.330663445427	1400
75	226370	23.370663445427	1400
75	226488	23.410663445427	1400
75	226744	23.450663445427	1400
75	226868	23.490663445427	1400
75	227123	23.530663445427	1400
75	227246	23.570663445427	1400
75	227502	23.610663445427	1400
75	227620	23.650663445427	1400
75	227889	23.690663445427	1400
75	228141	23.730663445427	1400
75	228274	23.770663445427	1400
75	228519	23.810663445427	1400
75	228637	23.850663445427	1400
75	228911	23.891959491951	1400
75	229019	23.930663445427	1400
75	229290	23.970663445427	1400
75	229408	24.010663445427	1400
75	229654	24.050663445427	1400
75	229788	24.090663445427	1400
75	230047	24.130663445427	1400
75	230308	24.170663445427	1400
75	230426	24.210663445427	1400
75	230672	24.250663445427	1400
75	230806	24.290663445427	1400
75	231061	24.330663445427	1400
75	231184	24.370663445427	1400
75	231440	24.410663445427	1400
75	231558	24.450663445427	1400
75	231819	24.490663445427	1400
75	231982	24.530663445427	1400
75	232211	24.570663445427	1400
75	232455	24.610663445427	1400
75	232573	24.650663445427	1400
75	232845	24.690663445427	1400
75	232953	24.730663445427	1400
75	233223	24.770663445427	1400
75	233331	24.810663445427	1400
75	233587	24.850663445427	1400
75	233721	24.890663445427	1400
75	233973	24.930663445427	1400
75	234240	24.970663445427	1400
75	234358	25.010663445427	1400
75	234604	25.050663445427	1400
75	234738	25.090663445427	1400
75	234995	25.13114607171	1400
75	235118	25.170663445427	1400
75	235373	25.210663445427	1400
75	235491	25.250663445427	1400
75	235753	25.290663445427	1400
75	235871	25.330663445427	1400
75	236146	25.370663445427	1400
75	236391	25.410663445427	1400
75	236509	25.450663445427	1400
75	236781	25.490663445427	1400
75	236889	25.530663445427	1400
75	237160	25.570663445427	1400
75	237268	25.610663445427	1400
75	237523	25.650663445427	1400
75	237657	25.690663445427	1400
75	237910	25.730663445427	1400
75	238178	25.770663445427	1400
75	238296	25.810663445427	1400
75	238541	25.850663445427	1400
75	238675	25.890663445427	1400
75	238951	25.932466120254	1400
75	239074	25.970663445427	1400
75	239329	26.010663445427	1400
75	239447	26.050663445427	1400
75	239709	26.090663445427	1400
75	239827	26.130663445427	1400
75	240101	26.170663445427	1400
75	240346	26.210663445427	1400
75	240464	26.250663445427	1400
75	240730	26.290663445427	1400
75	240843	26.330663445427	1400
75	241113	26.370663445427	1400
75	241221	26.410663445427	1400
75	241476	26.450663445427	1400
75	241610	26.490663445427	1400
75	241856	26.530663445427	1400
75	242096	26.570663445427	1400
75	242249	26.610663445427	1400
75	242495	26.650663445427	1400
75	242629	26.690663445427	1400
75	242887	26.730663445427	1400
75	243010	26.770663445427	1400
75	243266	26.810663445427	1400
75	243379	26.850663445427	1400
75	243646	26.890663445427	1400
75	243764	26.930663445427	1400
75	244039	26.970663445427	1400
75	244285	27.010663445427	1400
75	244403	27.050663445427	1400
75	244668	27.090663445427	1400
75	244782	27.130663445427	1400
75	245053	27.170663445427	1400
75	245161	27.210663445427	1400
75	245417	27.250663445427	1400
75	245551	27.290663445427	1400
75	245797	27.330663445427	1400
75	245975	27.370663445427	1400
75	246189	27.410663445427	1400
75	246433	27.450663445427	1400
75	246567	27.490663445427	1400
75	246822	27.530663445427	1400
75	246945	27.570663445427	1400
75	247201	27.610663445427	1400
75	247309	27.650663445427	1400
75	247580	27.690663445427	1400
75	247698	27.730663445427	1400
75	247965	27.770663445427	1400
75	248218	27.810663445427	1400
75	248336	27.850663445427	1400
75	248597	27.890663445427	1400
75	248715	27.930663445427	1400
75	248986	27.971100115042	1400
75	249094	28.010663445427	1400
75	249349	28.050663445427	1400
75	249483	28.090663445427	1400
75	249728	28.130663445427	1400
75	249861	28.170663445427	1400
75	250121	28.210663445427	1400
75	250366	28.250663445427	1400
75	250500	28.290663445427	1400
75	250755	28.330663445427	1400
75	250878	28.370663445427	1400
75	251134	28.410663445427	1400
75	251242	28.450663445427	1400
75	251513	28.490663445427	1400
75	251631	28.530663445427	1400
75	251899	28.570663445427	1400
75	252152	28.610663445427	1400
75	252270	28.650663445427	1400
75	252532	28.690663445427	1400
75	252650	28.730663445427	1400
75	252940	28.771950190081	1400
75	253048	28.810663445427	1400
75	253304	28.850663445427	1400
75	253438	28.890663445427	1400
75	253684	28.930663445427	1400
75	253817	28.970663445427	1400
75	254077	29.010663445427	1400
75	254322	29.050663445427	1400
75	254456	29.090663445427	1400
75	254706	29.130663445427	1400
75	254834	29.170663445427	1400
75	255090	29.210663445427	1400
75	255198	29.250663445427	1400
75	255489	29.290663445427	1400
75	255607	29.330663445427	1400
75	255867	29.370663445427	1400
75	256090	29.410663445427	1400
75	256245	29.450663445427	1400
75	256507	29.490663445427	1400
75	256625	29.530663445427	1400
75	256898	29.570663445427	1400
75	257006	29.610663445427	1400
75	257261	29.650663445427	1400
75	257390	29.690663445427	1400
75	257640	29.730663445427	1400
75	257773	29.770663445427	1400
75	258032	29.810663445427	1400
75	258278	29.850663445427	1400
75	258412	29.890663445427	1400
75	258661	29.930663445427	1400
75	258790	29.970663445427	1400
75	259045	30.010663445427	1400
75	259153	30.050663445427	1400
75	259425	30.090663445427	1400
75	259543	30.130663445427	1400
75	259803	30.170663445427	1400
75	259966	30.210663445427	1400
75	260181	30.250663445427	1400
75	260477	30.290663445427	1400
75	260607	30.330663445427	1400
75	261065	30.370663445427	1400
75	261216	30.410663445427	1400
75	262083	30.45522388085	1400
75	262277	30.490663445427	1400
75	263847	30.533043127684	1400
75	264194	30.570663445427	1400
75	267112	30.615638729273	1400
75	267982	30.650663445427	1400
75	270961	30.69346890285	1400
75	271792	30.730663445427	1400
75	272704	30.770663445427	1400
75	272814	30.810663445427	1400
75	273071	30.850663445427	1400
75	273197	30.890663445427	1400
75	273409	30.930663445427	1400
75	273534	30.970663445427	1400
75	273758	31.010663445427	1400
75	274074	31.050663445427	1400
75	274232	31.090663445427	1400
75	274778	31.130663445427	1400
75	274978	31.170663445427	1400
75	276008	31.212048946991	1400
75	276254	31.250663445427	1400
75	278222	31.293120147108	1400
75	278659	31.330663445427	1400
75	281281	31.371660574482	1400
75	284175	31.423026358413	1400
75	286550	31.451490095287	1400
75	289787	31.491935100161	1400
75	294102	31.545133235172	1400
75	296402	31.571816256362	1400
75	299683	31.611079091912	1400
75	302957	31.655128815318	1400
75	304454	31.690663445427	1400
75	305995	31.730920995217	1400
75	306187	31.770663445427	1400
75	306356	31.810663445427	1400
75	306462	31.850663445427	1400
75	306653	31.890663445427	1400
75	306754	31.930663445427	1400
75	306944	31.970663445427	1400
75	307045	32.010663445427	1400
75	307260	32.050663445427	1400
75	307394	32.090663445427	1400
75	307641	32.130663445427	1400
75	307873	32.170663445427	1400
75	308033	32.210663445427	1400
75	308278	32.250663445427	1400
75	308412	32.290663445427	1400
75	308672	32.330663445427	1400
75	308795	32.370663445427	1400
75	309051	32.410663445427	1400
75	309164	32.450663445427	1400
75	309430	32.490663445427	1400
75	309548	32.530663445427	1400
75	309822	32.570663445427	1400
75	310067	32.610663445427	1400
75	310185	32.650663445427	1400
75	310450	32.690663445427	1400
75	310564	32.730663445427	1400
75	310835	32.770663445427	1400
75	310943	32.810663445427	1400
75	311198	32.850663445427	1400
75	311332	32.890663445427	1400
75	311578	32.930663445427	1400
75	311756	32.970663445427	1400
75	311971	33.010663445427	1400
75	312215	33.050663445427	1400
75	312349	33.090663445427	1400
75	312605	33.130663445427	1400
75	312728	33.170663445427	1400
75	312983	33.210663445427	1400
75	313091	33.250663445427	1400
75	313363	33.290663445427	1400
75	313481	33.330663445427	1400
75	313748	33.370663445427	1400
75	314000	33.410663445427	1400
75	314118	33.450663445427	1400
75	314380	33.490663445427	1400
75	314498	33.530663445427	1400
75	314767	33.571091115042	1400
75	314875	33.610663445427	1400
75	315131	33.650663445427	1400
75	315265	33.690663445427	1400
75	315510	33.730663445427	1400
75	315643	33.770663445427	1400
75	315903	33.810663445427	1400
75	316148	33.850663445427	1400
75	316282	33.890663445427	1400
75	316537	33.930663445427	1400
75	316660	33.970663445427	1400
75	316915	34.010663445427	1400
75	317023	34.050663445427	1400
75	317294	34.090663445427	1400
75	317412	34.130663445427	1400
75	317679	34.170663445427	1400
75	317931	34.210663445427	1400
75	318049	34.250663445427	1400
75	318310	34.290663445427	1400
75	318428	34.330663445427	1400
75	318701	34.37077549692	1400
75	318809	34.410663445427	1400
75	319064	34.450663445427	1400
75	319198	34.490663445427	1400
75	319444	34.530663445427	1400
75	319577	34.570663445427	1400
75	319837	34.610663445427	1400
75	320083	34.650663445427	1400
75	320217	34.690663445427	1400
75	320467	34.730663445427	1400
75	320595	34.770663445427	1400
75	320851	34.810663445427	1400
75	320959	34.850663445427	1400
75	321231	34.890663445427	1400
75	321349	34.930663445427	1400
75	321610	34.970663445427	1400
75	321840	35.010663445427	1400
75	321988	35.050663445427	1400
75	322249	35.090663445427	1400
75	322367	35.130663445427	1400
75	322643	35.170663445427	1400
75	322751	35.210663445427	1400
75	323006	35.250663445427	1400
75	323135	35.290663445427	1400
75	323386	35.330663445427	1400
75	323519	35.370663445427	1400
75	323778	35.410663445427	1400
75	324023	35.450663445427	1400
75	324157	35.490663445427	1400
75	324403	35.530663445427	1400
75	324536	35.570663445427	1400
75	324792	35.610663445427	1400
75	324900	35.650663445427	1400
75	325172	35.690663445427	1400
75	325290	35.730663445427	1400
75	325550	35.770663445427	1400
75	325713	35.810663445427	1400
75	325928	35.850663445427	1400
75	326188	35.890663445427	1400
75	326306	35.930663445427	1400
75	326577	35.970663445427	1400