version 2
run General-0-20160426-12:45:54-8775
attr configname General
attr datetime 20160426-12:45:54
attr experiment General
attr inifile omnetpp.ini
attr iterationvars ""
attr iterationvars2 $repetition=0
attr measurement ""
attr network Projekt2
attr processid 8775
attr repetition 0
attr replication #0
attr resultdir results
attr runnumber 0
attr seedset 0

vector 0  Projekt2.R  ""  ETV
0	2	2.487623513697	2.487623513697
0	4	5.183304679148	2.695681165451
0	6	8.95109695329	3.767792274142
0	8	14.529909589514	5.578812636224
0	10	17.299578983926	2.769669394412
0	12	23.154214991579	5.854636007653
0	14	25.515818411524	2.361603419945
0	16	31.152710574132	5.636892162608
0	18	32.805856034142	1.65314546001
0	20	35.736875313322	2.93101927918
0	22	38.851353215313	3.114477901991
0	24	40.306737706477	1.455384491164
0	26	42.033295297125	1.726557590648
0	28	43.092772714537	1.059477417412
0	30	49.763345980645	6.670573266108
0	32	49.938499987924	0.175154007279
0	34	59.883236827708	9.944736839784
0	36	60.838305250233	0.955068422525
0	38	62.289111565078	1.450806314845
0	40	64.23745060983	1.948339044752
0	42	68.944138962699	4.706688352869
0	44	73.960772563673	5.016633600974
0	46	76.218794903611	2.258022339938
0	48	78.180442605274	1.961647701663
0	50	80.698741163974	2.5182985587
0	52	82.195357191021	1.496616027047
0	54	89.990119448567	7.794762257546
0	56	95.415227241391	5.425107792824
0	58	95.636283307786	0.221056066395
0	60	96.871017296513	1.234733988727
0	62	97.144500374885	0.273483078372
0	65	100.278337899809	3.133837524924
0	66	100.339614665006	0.061276765197
0	68	101.717359076771	1.377744411765
0	70	107.079822067086	5.362462990315
0	72	116.530331853113	9.450509786027
0	74	121.047684629025	4.517352775912
0	76	121.501377190019	0.453692560994
0	78	127.622319963844	6.120942773825
0	80	133.744996611579	6.122676647735
0	82	145.280662219004	11.535665607425
0	84	147.205789737038	1.925127518034
0	86	152.021508408222	4.815718671184
0	88	156.863514632899	4.842006224677
0	90	158.720303011779	1.85678837888
0	92	160.925196275348	2.204893263569
0	94	165.474804197318	4.54960792197
0	96	168.882621022448	3.40781682513
0	98	169.260244250762	0.377623228314
0	100	173.085927357432	3.82568310667
0	102	176.150222980479	3.064295623047
0	104	178.767186565605	2.616963585126
0	106	179.231375607105	0.4641890415
0	108	181.543879582506	2.312503975401
0	110	190.227141016467	8.683261433961
0	112	194.491235056748	4.264094040281
0	114	196.704716932015	2.213481875267
0	116	197.040555413912	0.335838481897
0	118	198.647252574595	1.606697160683
0	120	200.572336680688	1.925084106093
0	122	201.494177737145	0.921841056457
0	124	202.112787583236	0.618609846091
0	126	206.577552060491	4.464764477255
0	128	210.583422614362	4.005870553871
0	130	212.410669883911	1.827247269549
0	132	213.14281535612	0.732145472209
0	134	215.663819472956	2.521004116836
0	137	216.099653554832	0.435834081876
0	138	216.156559262435	0.056905707603
0	140	217.331871694465	1.17531243203
0	142	220.216014511662	2.884142817197
0	144	220.702423979999	0.486409468337
0	146	223.543414011523	2.840990031524
0	148	224.297739807747	0.754325796224
0	150	227.176383739851	2.878643932104
0	152	228.642054887774	1.465671147923
0	154	237.275799951607	8.633745063833
0	156	244.262540074249	6.986740122642
0	158	247.697956938349	3.4354168641
0	160	249.491195168804	1.793238230455
0	162	250.827750653957	1.336555485153
0	164	253.676234404447	2.84848375049
0	166	255.39983162467	1.723597220223
0	168	262.378884809753	6.979053185083
0	170	265.967208208124	3.588323398371
0	172	266.280891885449	0.313683677325
0	174	266.467237756848	0.186345871399
0	176	276.967878810211	10.500641053363
0	178	280.264616212863	3.296737402652
0	180	283.441118607325	3.176502394462
0	182	286.772910944386	3.331792337061
0	184	287.335189142439	0.562278198053
0	186	288.043809260687	0.708620118248
0	188	289.374021346548	1.330212085861
0	190	289.788107411833	0.414086065285
0	192	293.955235481206	4.167128069373
0	194	295.092121374054	1.136885892848
0	196	297.900306053368	2.808184679314
0	198	299.256612234041	1.356306180673
0	200	300.435949905953	1.179337671912
0	202	302.969233286536	2.533283380583
0	204	303.086782755775	0.117549469239
0	206	304.818755688194	1.731972932419
0	208	307.836368703693	3.017613015499
0	210	321.199859242221	13.363490538528
0	212	330.778699168381	9.57883992616
0	214	331.101604492849	0.322905324468
0	216	334.275083732905	3.173479240056
0	218	334.977988289231	0.702904556326
0	220	338.002046025491	3.02405773626
0	222	338.529786661767	0.527740636276
0	224	354.610087712496	16.080301050729
0	226	357.786315857778	3.176228145282
0	228	360.402063418655	2.615747560877
0	230	361.278305018456	0.876241599801
0	232	362.883499049705	1.605194031249
0	234	364.767323792678	1.883824742973
0	236	366.698666797485	1.931343004807
0	238	367.539497822921	0.840831025436
0	240	370.470090045133	2.930592222212
0	242	370.989472413571	0.519382368438
0	244	372.226976103338	1.237503689767
0	246	372.577842332715	0.350866229377
0	248	375.947347237314	3.369504904599
0	250	379.151563828762	3.204216591448
0	252	380.296231358884	1.144667530122
0	254	380.74236816664	0.446136807756
0	256	385.262274166457	4.519905999817
0	258	385.918915955978	0.656641789521
0	260	394.880485631534	8.961569675556
0	262	396.260527504754	1.38004187322
0	264	399.519335647388	3.258808142634
0	267	404.680330620537	5.160994973149
0	268	404.721324355829	0.040993735292
0	270	405.027759000403	0.306434644574
0	272	407.953064802871	2.925305802468
0	274	413.412521560724	5.459456757853
0	276	416.771964657985	3.359443097261
0	278	417.075068983911	0.303104325926
0	280	427.795834100944	10.720765117033
0	282	439.042928479697	11.247094378753
0	284	445.358892382073	6.315963902376
0	286	447.25590217126	1.897009789187
0	288	449.393652951259	2.137750779999
0	290	460.67943480477	11.285781853511
0	292	460.851415584041	0.171980779271
0	294	463.636851074745	2.785435490704
0	296	465.436691734668	1.799840659923
0	299	469.469427551124	4.032735816456
0	300	469.529997935562	0.060570384438
0	302	469.649926832736	0.119928897174
0	304	471.398561999336	1.7486351666
0	306	472.395792722227	0.997230722891
0	308	484.070503090762	11.674710368535
0	310	484.454673386695	0.384170295933
0	312	485.790931772454	1.336258385759
0	314	486.844460040597	1.053528268143
0	316	488.811398893687	1.96693885309
0	318	489.190564802962	0.379165909275
0	320	492.691185382607	3.500620579645
0	322	493.839288229192	1.148102846585
0	324	500.211999820197	6.372711591005
0	326	501.816652947467	1.60465312727
0	328	509.328388296722	7.511735349255
0	330	509.527280501168	0.198892204446
0	332	510.260466845413	0.733186344245
0	334	513.798035426608	3.537568581195
0	336	516.296565974806	2.498530548198
0	338	518.804858570716	2.50829259591
0	340	524.814580138237	6.009721567521
0	342	525.73982465853	0.925244520293
0	344	527.873568470181	2.133743811651
0	346	530.095845321522	2.222276851341
0	348	537.552592392452	7.45674707093
0	350	537.848543317706	0.295950925254
0	352	545.469456841582	7.620913523876
0	354	548.043143764804	2.573686923222
0	356	548.303455211822	0.260311447018
0	358	556.251222997851	7.947767786029
0	360	557.227244244438	0.976021246587
0	363	558.377924886733	1.150680642295
0	364	558.406127138725	0.028202251992
0	366	561.708664868997	3.302537730272
0	368	567.250647822002	5.541982953005
0	370	567.674639962684	0.423992140682
0	372	570.799981925222	3.125341962538
0	374	574.579783355548	3.779801430326
0	376	580.103630770009	5.523847414461
0	378	581.128593271087	1.024962501078
0	380	582.051146442374	0.922553171287
0	382	582.658197758075	0.607051315701
0	384	584.179798127844	1.521600369769
0	386	586.829185253721	2.649387125877
0	389	589.243577453125	2.414392199404
0	390	589.304514829511	0.060937376386
0	392	589.845271585465	0.540756755954
0	394	595.142494802704	5.297223217239
0	397	596.527687490837	1.385192688133
0	398	596.541807112314	0.014119621477
0	400	597.016831631005	0.475024518691
0	402	600.414734056922	3.397902425917
0	404	602.943983153367	2.529249096445
0	406	603.88814813593	0.944164982563
0	408	607.537674096239	3.649525960309
0	410	611.523947717489	3.98627362125
0	412	612.544987932194	1.021040214705
0	414	622.370417465338	9.825429533144
0	416	624.074129925778	1.70371246044
0	418	624.932192843302	0.858062917524
0	420	629.165266071185	4.233073227883
0	422	631.740444974671	2.575178903486
0	424	633.253476394434	1.513031419763
0	426	635.943249006791	2.689772612357
0	428	642.734449734373	6.791200727582
0	430	645.282112169066	2.547662434693
0	432	648.338088359122	3.055976190056
0	434	649.095348337795	0.757259978673
0	436	655.759869033217	6.664520695422
0	438	664.916714003869	9.156844970652
0	440	668.335537894467	3.418823890598
0	442	670.113409976823	1.777872082356
0	444	671.902548159811	1.789138182988
0	446	677.522927799382	5.620379639571
0	448	689.051947549113	11.529019749731
0	450	692.658663250852	3.606715701739
0	452	693.029243192938	0.370579942086
0	454	694.08830359276	1.059060399822
0	456	698.458759268452	4.370455675692
0	458	703.501525882089	5.042766613637
0	460	705.093693371938	1.592167489849
0	462	706.608749615202	1.515056243264
0	464	709.984595665733	3.375846050531
0	466	716.373093853937	6.388498188204
0	468	717.235325282147	0.86223142821
0	470	719.846932761126	2.611607478979
0	472	720.974149288346	1.12721652722
0	474	727.378640638295	6.404491349949
0	476	737.471751997448	10.093111359153
0	478	741.009900798381	3.538148800933
0	480	743.673485029691	2.66358423131
0	482	747.549212836092	3.875727806401
0	484	750.782717488501	3.233504652409
0	486	752.870115871202	2.087398382701
0	488	755.155719185089	2.285603313887
0	490	764.532124258063	9.376405072974
0	492	765.318295983089	0.786171725026
0	494	768.416687015025	3.098391031936
0	496	769.923619409807	1.506932394782
0	498	771.577807380209	1.654187970402
0	500	774.47116807669	2.893360696481
0	502	777.268376717909	2.797208641219
0	505	779.200690842876	1.932314124967
0	506	779.25883018692	0.058139344044
0	508	781.164213333812	1.905383146892
0	510	782.240994981421	1.076781647609
0	512	786.018125533212	3.777130551791
0	514	789.256086129178	3.237960595966
0	516	790.275080326925	1.018994197747
0	518	791.302879201019	1.027798874094
0	520	792.753786260787	1.450907059768
0	522	795.6409114281	2.887125167313
0	524	799.78984904771	4.14893761961
0	526	801.469732257931	1.679883210221
0	528	807.792075072782	6.322342814851
0	530	808.228797008125	0.436721935343
0	532	808.554438303609	0.325641295484
0	534	809.617110700345	1.062672396736
0	536	809.907878964075	0.29076826373
0	538	812.439544381847	2.531665417772
0	540	813.750628423168	1.311084041321
0	542	816.431815658084	2.681187234916
0	544	818.839471615359	2.407655957275
0	546	821.401710822288	2.562239206929
0	548	821.504321077362	0.102610255074
0	550	824.681349233505	3.177028156143
0	552	835.098955671352	10.417606437847
0	554	838.266504497331	3.167548825979
0	556	839.427894773778	1.161390276447
0	558	841.12172627714	1.693831503362
0	560	841.871970762073	0.750244484933
0	562	848.67787274015	6.805901978077
0	564	849.134753615913	0.456880875763
0	566	850.509272267787	1.374518651874
0	568	850.816234112344	0.306961844557
0	570	852.533618766629	1.717384654285
0	572	864.94704804816	12.413429281531
0	574	871.621792019836	6.674743971676
0	576	872.526489759506	0.90469773967
0	578	877.449182493286	4.92269273378
0	580	879.759413071924	2.310230578638
0	582	883.410471557936	3.651058486012
0	584	885.192692052907	1.782220494971
0	586	885.509529983793	0.316837930886
0	588	885.824175490594	0.314645506801
0	590	893.382021880843	7.557846390249
0	592	894.685058848674	1.303036967831
0	594	898.442881423409	3.757822574735
0	596	900.343269276577	1.900387853168
0	598	920.639440836388	20.296171559811
0	600	926.15863919162	5.519198355232
0	602	926.644249451756	0.485610260136
0	604	933.694781321008	7.050531869252
0	606	939.772507772317	6.077726451309
0	608	939.887356510971	0.114848738654
0	610	940.419333236406	0.531976725435
0	612	942.549087018077	2.129753781671
0	614	945.416986289844	2.867899271767
0	616	945.964602095491	0.547615805647
0	618	946.361153224335	0.396551128844
0	620	950.890623591163	4.529470366828
0	622	956.542410250921	5.651786659758
0	624	962.548369737498	6.005959486577
0	626	967.488527041478	4.94015730398
0	628	969.078535675888	1.59000863441
0	630	971.604178561084	2.525642885196
0	632	972.056551591665	0.452373030581
0	634	973.62516168193	1.568610090265
0	636	973.726522038585	0.101360356655
0	638	973.941548191523	0.215026152938
0	640	986.091088707936	12.149540516413
0	642	989.677404406782	3.586315698846
0	644	991.079222106011	1.401817699229
0	646	992.892119321553	1.812897215542
0	648	994.526690705986	1.634571384433
0	650	998.367693317423	3.841002611437
0	652	998.523430973971	0.155737656548
0	654	1004.561749182588	6.038318208617
0	656	1005.926484716963	1.364735534375
0	659	1017.056366492674	11.129881775711
0	660	1017.10666979065	0.050303297976
0	662	1022.916401503123	5.809731712473
0	665	1023.703389430621	0.786987927498
0	666	1023.738739126376	0.035349695755
0	668	1028.082121372341	4.343382245965
0	670	1029.420879833898	1.338758461557
0	672	1038.074715090205	8.653835256307
0	674	1042.002610182273	3.927895092068
0	676	1046.161484238336	4.158874056063
0	678	1046.726369163993	0.564884925657
0	680	1047.97020679197	1.243837627977
0	682	1050.178600091929	2.208393299959
0	684	1052.195981642429	2.0173815505
0	686	1052.363591801094	0.167610158665
0	688	1053.605528569111	1.241936768017
0	690	1054.274946193413	0.669417624302
0	693	1054.86843471579	0.593488522377
0	694	1054.924521127052	0.056086411262
0	696	1055.48707798066	0.562556853608
0	698	1060.222316146977	4.735238166317
0	700	1062.090108178912	1.867792031935
0	702	1062.850625294342	0.76051711543
0	704	1069.07871847567	6.228093181328
0	706	1070.34968977974	1.27097130407
0	708	1079.00332264496	8.65363286522
0	710	1086.899979232606	7.896656587646
0	712	1089.711395385776	2.81141615317
0	714	1093.367785795806	3.65639041003
0	717	1096.091677877779	2.723892081973
0	718	1096.188748291714	0.097070413935
0	720	1100.781241970516	4.592493678802
0	722	1101.321113995171	0.539872024655
0	724	1103.400713303783	2.079599308612
0	726	1106.315159778067	2.914446474284
0	728	1106.470208495453	0.155048717386
0	730	1109.052979405495	2.582770910042
0	732	1112.65589212512	3.602912719625
0	734	1113.470896336146	0.815004211026
0	736	1128.108295000126	14.63739866398
0	738	1136.272339767864	8.164044767738
0	740	1137.205243182773	0.932903414909
0	742	1140.060732305399	2.855489122626
0	744	1143.47052179117	3.409789485771
0	746	1145.771760754886	2.301238963716
0	748	1151.763276657355	5.991515902469
0	750	1154.437412388085	2.67413573073
0	752	1158.606443579411	4.169031191326
0	754	1162.535799693496	3.929356114085
0	756	1172.549602695057	10.013803001561
0	758	1173.671262182766	1.121659487709
0	760	1176.095202342963	2.423940160197
0	762	1177.618797711023	1.52359536806
0	764	1178.335056329566	0.716258618543
0	766	1179.041630049821	0.706573720255
0	768	1179.796425889159	0.754795839338
0	770	1180.414522034608	0.618096145449
0	772	1181.155099841004	0.740577806396
0	774	1189.8223266167	8.667226775696
0	776	1192.351262942943	2.528936326243
0	778	1196.387305242644	4.036042299701
0	780	1198.192342202217	1.805036959573
0	782	1200.215075911125	2.022733708908
0	784	1210.758511952735	10.54343604161
0	786	1211.532550244554	0.774038291819
0	788	1214.955963953132	3.423413708578
0	790	1215.836486908901	0.880522955769
0	792	1216.103949778886	0.267462869985
0	794	1216.283292667632	0.179342888746
0	796	1216.457509753979	0.174217086347
0	798	1218.167202449898	1.709692695919
0	800	1220.174543620967	2.007341171069
0	802	1221.29555300415	1.121009383183
0	804	1227.681563287744	6.386010283594
0	806	1231.257137598708	3.575574310964
0	808	1242.497221440183	11.240083841475
0	810	1243.920470311181	1.423248870998
0	812	1246.804789025894	2.884318714713
0	814	1247.398692231895	0.593903206001
0	817	1249.744619394521	2.345927162626
0	818	1249.819584454459	0.074965059938
0	820	1255.604664865098	5.785080410639
0	822	1255.813517878318	0.20885301322
0	824	1259.899313051234	4.085795172916
0	826	1263.311928567855	3.412615516621
0	828	1265.265620763607	1.953692195752
0	830	1267.079364418612	1.813743655005
0	832	1270.470431056343	3.391066637731
0	834	1272.777790459632	2.307359403289
0	836	1275.579971457447	2.802180997815
0	838	1282.389491504799	6.809520047352
0	840	1286.152101315071	3.762609810272
0	842	1300.071058894192	13.918957579121
0	844	1301.972848952374	1.901790058182
0	846	1302.706322018502	0.733473066128
0	848	1304.532820759713	1.826498741211
0	850	1307.796534060556	3.263713300843
0	852	1314.903288573066	7.10675451251
0	854	1315.820103278508	0.916814705442
0	857	1316.262891377181	0.442788098673
0	858	1316.325493033011	0.06260165583
0	860	1317.106547267652	0.781054234641
0	862	1321.367697634407	4.261150366755
0	864	1327.768387496831	6.400689862424
0	866	1328.925450578966	1.157063082135
0	868	1335.968981863254	7.043531284288
0	870	1337.419897025722	1.450915162468
0	872	1340.533447252189	3.113550226467
0	874	1343.19595303764	2.662505785451
0	876	1344.373672122202	1.177719084562
0	878	1349.708102132704	5.334430010502
0	880	1351.908205152207	2.200103019503
0	883	1354.882718030898	2.974512878691
0	884	1354.882884086583	0.000166055685
0	886	1361.065347809225	6.182463722642
0	888	1362.186637690674	1.121289881449
0	890	1363.145361655292	0.958723964618
0	892	1364.807874142436	1.662512487144
0	894	1369.607032467956	4.79915832552
0	896	1376.104323510579	6.497291042623
0	898	1376.720366816786	0.616043306207
0	900	1380.137539768804	3.417172952018
0	902	1389.297093777584	9.15955400878
0	904	1391.12422761571	1.827133838126
0	906	1394.613567465986	3.489339850276
0	908	1396.595076705233	1.981509239247
0	910	1397.323232186248	0.728155481015
0	912	1401.987220999674	4.663988813426
0	914	1410.820661831943	8.833440832269
0	916	1411.602582220072	0.781920388129
0	918	1415.540106198968	3.937523978896
0	920	1421.908346160793	6.368239961825
0	922	1422.787200536252	0.878854375459
0	924	1423.916488590816	1.129288054564
0	926	1424.636259149124	0.719770558308
0	928	1434.10754577337	9.471286624246
0	930	1436.298228769087	2.190682995717
0	933	1438.212794585865	1.914565816778
0	934	1438.290787821444	0.077993235579
0	936	1442.020840155289	3.730052333845
0	938	1442.718415210443	0.697575055154
0	940	1443.219039134141	0.500623923698
0	942	1444.877554246096	1.658515111955
0	944	1448.810471350577	3.932917104481
0	946	1450.216500778507	1.40602942793
0	948	1453.334117688251	3.117616909744
0	950	1455.202605617545	1.868487929294
0	952	1455.928364551858	0.725758934313
0	954	1456.904012605786	0.975648053928
0	956	1457.5230865866	0.619073980814
0	958	1460.174443554698	2.651356968098
0	960	1465.11867207418	4.944228519482
0	962	1471.10078967801	5.98211760383
0	964	1475.224829539415	4.124039861405
0	966	1475.599927309185	0.37509776977
0	968	1478.970308807828	3.370381498643
0	970	1481.155880336031	2.185571528203
0	972	1482.12847767649	0.972597340459
0	974	1482.553403780875	0.424926104385
0	976	1483.130188103401	0.576784322526
0	978	1486.915626123862	3.785438020461
0	980	1490.572624159405	3.656998035543
0	982	1492.085463959159	1.512839799754
0	984	1493.951574716402	1.866110757243
0	986	1496.451709438339	2.500134721937
0	988	1501.957499647157	5.505790208818
0	990	1502.564875938251	0.607376291094
0	992	1503.252608913871	0.68773297562
0	994	1503.722036225024	0.469427311153
0	996	1504.262859123758	0.540822898734
0	998	1506.271480896341	2.008621772583
0	1000	1506.671502766158	0.400021869817
0	1002	1507.989868937636	1.318366171478
0	1004	1511.831141999572	3.841273061936
0	1007	1520.293049844817	8.461907845245
0	1008	1520.385828719498	0.092778874681
0	1010	1524.73449304878	4.348664329282
0	1012	1528.857522092041	4.123029043261
0	1014	1533.000411379041	4.142889287
0	1016	1533.291914414142	0.291503035101
0	1018	1540.313390296114	7.021475881972
0	1020	1541.04898457404	0.735594277926
0	1022	1541.310310323815	0.261325749775
0	1024	1545.460259722268	4.149949398453
0	1026	1547.870435010269	2.410175288001
0	1028	1551.817313785159	3.94687877489
0	1030	1554.451959021313	2.634645236154
0	1032	1554.592022252246	0.140063230933
0	1034	1564.397511454714	9.805489202468
0	1036	1565.101479002483	0.703967547769
0	1038	1566.138037753609	1.036558751126
0	1040	1567.152501898142	1.014464144533
0	1042	1567.979085709256	0.826583811114
0	1044	1571.371841146822	3.392755437566
0	1046	1571.688902669135	0.317061522313
0	1049	1571.884241263494	0.195338594359
0	1050	1571.933939546758	0.049698283264
0	1052	1574.367362613441	2.433423066683
0	1055	1582.325038160002	7.957675546561
0	1056	1582.352887233136	0.027849073134
0	1058	1585.678116495777	3.325229262641
0	1060	1591.04808530922	5.369968813443
0	1062	1595.661571452649	4.613486143429
0	1064	1608.129484739338	12.467913286689
0	1066	1609.122214382866	0.992729643528
0	1068	1612.769285802941	3.647071420075
0	1070	1615.417927437812	2.648641634871
0	1072	1616.019254023069	0.601326585257
0	1074	1616.217530055149	0.19827603208
0	1076	1618.372269495473	2.154739440324
0	1078	1620.366692744127	1.994423248654
0	1080	1622.972389938524	2.605697194397
0	1082	1634.354461287787	11.382071349263
0	1084	1639.001496325252	4.647035037465
0	1086	1645.276166043121	6.274669717869
0	1088	1648.074001608927	2.797835565806
0	1090	1649.312191209107	1.23818960018
0	1092	1650.051438675745	0.739247466638
0	1094	1659.828201607299	9.776762931554
0	1096	1661.650039473157	1.821837865858
0	1098	1662.440770811662	0.790731338505
0	1100	1668.77343713481	6.332666323148
0	1102	1677.720039161227	8.946602026417
0	1104	1679.753445167392	2.033406006165
0	1106	1688.263365747518	8.509920580126
0	1108	1692.035076734229	3.771710986711
0	1110	1696.851453023432	4.816376289203
0	1112	1698.848980483342	1.99752745991
0	1114	1701.835371413442	2.9863909301
0	1116	1705.534012802534	3.698641389092
0	1118	1711.755297191834	6.2212843893
0	1120	1713.823600805377	2.068303613543
0	1122	1714.863860716743	1.040259911366
0	1124	1720.448155645689	5.584294928946
0	1126	1726.118460739977	5.670305094288
0	1128	1726.766749389759	0.648288649782
0	1130	1729.652785169529	2.88603577977
0	1133	1734.105512617479	4.45272744795
0	1134	1734.145488351964	0.039975734485
0	1136	1745.124460344258	10.978971992294
0	1138	1746.404067780367	1.279607436109
0	1140	1752.352314494177	5.94824671381
0	1142	1752.833316777636	0.481002283459
0	1144	1757.381523567111	4.548206789475
0	1146	1769.405372531734	12.023848964623
0	1148	1782.010950810477	12.605578278743
0	1150	1783.963342837554	1.952392027077
0	1152	1788.165369928435	4.202027090881
0	1155	1790.229200363818	2.063830435383
0	1156	1790.241369327781	0.012168963963
0	1158	1793.301930591645	3.060561263864
0	1160	1794.243924285834	0.941993694189
0	1162	1795.623298239161	1.379373953327
0	1164	1797.208699924066	1.585401684905
0	1166	1797.650375036005	0.441675111939
0	1168	1799.327398045977	1.677023009972
0	1170	1804.507298185203	5.179900139226
0	1172	1805.568087910991	1.060789725788
0	1174	1806.199687775603	0.631599864612
0	1176	1807.737831703492	1.538143927889
0	1178	1809.885967657472	2.14813595398
0	1180	1810.2717083693	0.385740711828
0	1182	1811.03374250435	0.76203413505
0	1184	1822.876642307027	11.842899802677
0	1186	1823.185547398184	0.308905091157
0	1188	1824.748783861438	1.563236463254
0	1190	1830.694454884764	5.945671023326
0	1192	1833.220863793275	2.526408908511
0	1194	1844.047686808226	10.826823014951
0	1196	1845.310666702372	1.262979894146
0	1198	1855.030555603074	9.719888900702
0	1200	1859.696438684137	4.665883081063
0	1202	1866.807601425979	7.111162741842
0	1204	1868.397486163794	1.589884737815
0	1206	1872.859775426812	4.462289263018
0	1208	1874.195223445031	1.335448018219
0	1210	1875.410772092058	1.215548647027
0	1212	1876.940744593606	1.529972501548
0	1214	1877.194483068891	0.253738475285
0	1216	1878.272364784269	1.077881715378
0	1218	1879.841267745236	1.568902960967
0	1220	1884.319164237813	4.477896492577
0	1222	1885.11197563022	0.792811392407
0	1224	1892.931691037182	7.819715406962
0	1226	1893.35806757136	0.426376534178
0	1228	1894.538574804728	1.180507233368
0	1230	1894.703296922381	0.164722117653
0	1232	1903.867876259402	9.164579337021
0	1236	1907.747319835789	3.879443576387
0	1237	1907.789459609516	0.042139773727
0	1238	1907.823939360141	0.034479750625
0	1240	1910.111210412785	2.287271052644
0	1242	1914.527822886765	4.41661247398
0	1244	1915.61754954347	1.089726656705
0	1246	1916.094349082438	0.476799538968
0	1248	1922.527505475977	6.433156393539
0	1250	1922.776092294732	0.248586818755
0	1252	1923.641630425776	0.865538131044
0	1254	1923.923254067623	0.281623641847
0	1256	1927.317390370436	3.394136302813
0	1258	1930.662052636157	3.344662265721
0	1260	1935.650949978179	4.988897342022
0	1262	1936.495522045591	0.844572067412
0	1264	1938.193205670495	1.697683624904
0	1266	1939.830178814796	1.636973144301
0	1268	1944.014786088585	4.184607273789
0	1270	1946.459841081273	2.445054992688
0	1272	1951.768700550902	5.308859469629
0	1274	1957.678873247679	5.910172696777
0	1276	1959.108308995472	1.429435747793
0	1278	1963.003645902286	3.895336906814
0	1280	1963.30824815411	0.304602251824
0	1282	1964.253728240257	0.945480086147
0	1284	1965.141433860001	0.887705619744
0	1286	1965.564337513246	0.422903653245
0	1288	1968.253325128307	2.688987615061
0	1290	1968.424224725707	0.1708995974
0	1292	1970.365748837836	1.941524112129
0	1294	1971.442632792966	1.07688395513
0	1296	1973.450541408924	2.007908615958
0	1298	1974.36245608661	0.911914677686
0	1300	1976.202773355386	1.840317268776
0	1302	1978.029966721356	1.82719336597
0	1304	1980.260716296684	2.230749575328
0	1306	1983.709940459933	3.449224163249
0	1308	1985.460211773038	1.750271313105
0	1310	1989.028700527042	3.568488754004
0	1312	1994.773227299969	5.744526772927
0	1314	1995.773437315095	1.000210015126
0	1316	1997.477948766322	1.704511451227
0	1318	1998.911702728855	1.433753962533
0	1320	2004.172846663925	5.26114393507
0	1322	2004.772413277687	0.599566613762
0	1324	2006.908437474561	2.136024196874
0	1326	2011.569673980657	4.661236506096
0	1328	2011.840685712902	0.271011732245
0	1330	2012.016269409741	0.175583696839
0	1332	2015.253050135239	3.236780725498
0	1334	2018.835090247024	3.582040111785
0	1336	2019.529353162889	0.694262915865
0	1338	2024.05399885777	4.524645694881
0	1340	2029.6913541604	5.63735530263
0	1342	2034.198592541532	4.507238381132
0	1344	2037.629664403292	3.43107186176
0	1346	2038.530639644149	0.900975240857
0	1348	2039.120025301839	0.58938565769
0	1350	2040.524344661543	1.404319359704
0	1352	2040.741601991886	0.217257330343
0	1355	2043.398883929975	2.657281938089
0	1356	2043.428090157996	0.029206228021
0	1358	2044.383841701633	0.955751543637
0	1360	2051.062093669958	6.678251968325
0	1362	2052.452263752577	1.390170082619
0	1364	2052.882022816722	0.429759064145
0	1366	2053.540427299403	0.658404482681
0	1368	2058.071812103075	4.531384803672
0	1370	2059.919569954427	1.847757851352
0	1372	2067.696915780777	7.77734582635
0	1374	2067.833829929263	0.136914148486
0	1376	2071.601510382283	3.76768045302
0	1378	2076.42676392954	4.825253547257
0	1380	2078.451616850499	2.024852920959
0	1382	2078.69185341833	0.240236567831
0	1384	2080.593649797804	1.901796379474
0	1386	2082.788285815202	2.194636017398
0	1388	2089.217584916491	6.429299101289
0	1390	2090.316938791988	1.099353875497
0	1392	2092.327634421715	2.010695629727
0	1394	2094.9126368971	2.585002475385
0	1396	2096.51884995038	1.60621305328
0	1398	2106.133276439215	9.614426488835
0	1400	2106.70716457691	0.573888137695
0	1402	2109.818899859218	3.111735282308
0	1404	2111.753625332715	1.934725473497
0	1406	2111.861633821963	0.108008489248
0	1408	2116.454179078792	4.592545256829
0	1410	2118.142654684243	1.688475605451
0	1412	2120.581349767799	2.438695083556
0	1414	2122.721502616201	2.140152848402
0	1416	2123.244088097323	0.522585481122
0	1418	2125.548848122925	2.304760025602
0	1420	2126.014704879439	0.465856756514
0	1422	2129.446091016795	3.431386137356
0	1424	2132.590958331663	3.144867314868
0	1426	2133.566470943128	0.975512611465
0	1428	2135.890998081639	2.324527138511
0	1430	2136.304857777427	0.413859695788
0	1432	2137.487030493267	1.18217271584
0	1434	2138.983107491877	1.49607699861
0	1436	2139.460143542275	0.477036050398
0	1438	2148.858632010914	9.398488468639
0	1440	2149.381228160663	0.522596149749
0	1442	2150.002783707416	0.621555546753
0	1444	2150.418544171685	0.415760464269
0	1446	2157.448263961963	7.029719790278
0	1448	2160.04307829025	2.594814328287
0	1450	2162.397589349024	2.354511058774
0	1452	2162.687981765948	0.290392416924
0	1454	2164.519430300941	1.831448534993
0	1456	2171.761479592464	7.242049291523
0	1458	2178.173744663716	6.412265071252
0	1460	2178.433595647056	0.25985098334
0	1462	2180.274408276279	1.840812629223
0	1464	2185.10840427364	4.833995997361
0	1466	2188.972290198867	3.863885925227
0	1468	2195.262199019434	6.289908820567
0	1470	2196.789806480032	1.527607460598
0	1472	2197.084165047918	0.294358567886
0	1474	2204.115773970313	7.031608922395
0	1476	2205.782750709787	1.666976739474
0	1478	2209.296541794628	3.513791084841
0	1480	2211.219462430419	1.922920635791
0	1482	2214.827603781906	3.608141351487
0	1484	2217.431513727959	2.603909946053
0	1486	2218.62275657802	1.191242850061
0	1488	2222.401680089891	3.778923511871
0	1491	2226.643030078509	4.241349988618
0	1492	2226.725356379799	0.08232630129
0	1494	2229.757663869096	3.032307489297
0	1496	2233.701230163348	3.943566294252
0	1498	2234.524620729358	0.82339056601
0	1500	2238.894301364085	4.369680634727
0	1503	2239.419286508739	0.524985144654
0	1504	2239.448729817933	0.029443309194
0	1506	2244.223398186312	4.774668368379
0	1508	2245.329147005144	1.105748818832
0	1510	2254.923911935454	9.59476493031
0	1512	2255.719191239674	0.79527930422
0	1514	2257.557427574265	1.838236334591
0	1516	2259.657504482611	2.100076908346
0	1518	2262.339508690651	2.68200420804
0	1520	2271.558734359006	9.219225668355
0	1522	2277.408665094546	5.84993073554
0	1524	2279.85672078644	2.448055691894
0	1526	2281.689893470296	1.833172683856
0	1528	2281.997549149306	0.30765567901
0	1530	2291.099376866498	9.101827717192
0	1532	2294.015409539683	2.916032673185