file 85845723 1471266601                                        
version 2
run General-0-20160815-15:07:40-8354
attr configname General
attr datetime 20160815-15:07:40
attr experiment General
attr inifile omnetpp.ini
attr iterationvars ""
attr iterationvars2 $repetition=0
attr measurement ""
attr network University
attr processid 8354
attr repetition 0
attr replication #0
attr resultdir results
attr runnumber 0
attr seedset 0

vector 8  University.wirelessNet.whostVideoConf.wlan[0].mgmt  dataQueueLen:vector  ETV
attr interpolationmode  sample-hold
attr title  "data queue length, vector"
vector 30  University.wirelessNet.whostFTP.wlan[0].mgmt  dataQueueLen:vector  ETV
attr interpolationmode  sample-hold
attr title  "data queue length, vector"
vector 40  University.wirelessNet.accessPoint.wlan[0].mgmt  dataQueueLen:vector  ETV
attr interpolationmode  sample-hold
attr title  "data queue length, vector"
vector 91  University.remoteR.ppp[0].queue  queueLength:vector  ETV
attr interpolationmode  sample-hold
attr title  "queue length, vector"
vector 92  University.remoteR.ppp[0].ppp  txState:vector  ETV
attr interpolationmode  sample-hold
attr title  "tx state, vector"
vector 107  University.mainR.ppp[0].queue  queueLength:vector  ETV
attr interpolationmode  sample-hold
attr title  "queue length, vector"
vector 108  University.mainR.ppp[0].ppp  txState:vector  ETV
attr interpolationmode  sample-hold
attr title  "tx state, vector"
vector 118  University.mainR.ppp[1].queue  queueLength:vector  ETV
attr interpolationmode  sample-hold
attr title  "queue length, vector"
vector 119  University.mainR.ppp[1].ppp  txState:vector  ETV
attr interpolationmode  sample-hold
attr title  "tx state, vector"
vector 129  University.mainR.ppp[2].queue  queueLength:vector  ETV
attr interpolationmode  sample-hold
attr title  "queue length, vector"
vector 130  University.mainR.ppp[2].ppp  txState:vector  ETV
attr interpolationmode  sample-hold
attr title  "tx state, vector"
vector 140  University.mainR.ppp[3].queue  queueLength:vector  ETV
attr interpolationmode  sample-hold
attr title  "queue length, vector"
vector 141  University.mainR.ppp[3].ppp  txState:vector  ETV
attr interpolationmode  sample-hold
attr title  "tx state, vector"
vector 163  University.ccTVMonitoringHost.ppp[0].queue  queueLength:vector  ETV
attr interpolationmode  sample-hold
attr title  "queue length, vector"
vector 164  University.ccTVMonitoringHost.ppp[0].ppp  txState:vector  ETV
attr interpolationmode  sample-hold
attr title  "tx state, vector"
vector 179  University.profLaptop.ppp[0].queue  queueLength:vector  ETV
attr interpolationmode  sample-hold
attr title  "queue length, vector"
vector 180  University.profLaptop.ppp[0].ppp  txState:vector  ETV
attr interpolationmode  sample-hold
attr title  "tx state, vector"
vector 201  University.Server.ppp[0].queue  queueLength:vector  ETV
attr interpolationmode  sample-hold
attr title  "queue length, vector"
vector 202  University.Server.ppp[0].ppp  txState:vector  ETV
attr interpolationmode  sample-hold
attr title  "tx state, vector"
vector 234  University.wirelessNet.whostVideoConf.wlan[0].mac  RadioState  ETV
attr enum  "IDLE=0, OFF=4, RECV=1, SLEEP=3, TRANSMIT=2"
attr enumname  RadioState
vector 233  University.wirelessNet.whostVideoConf.wlan[0].mac  State  ETV
attr enum  "BACKOFF=3, DEFER=1, IDLE=0, RECEIVE=8, WAITACK=4, WAITAIFS=2, WAITCTS=6, WAITMULTICAST=5, WAITSIFS=7"
attr enumname  Ieee80211Mac
vector 240  University.wirelessNet.whostFTP.wlan[0].mac  RadioState  ETV
attr enum  "IDLE=0, OFF=4, RECV=1, SLEEP=3, TRANSMIT=2"
attr enumname  RadioState
vector 239  University.wirelessNet.whostFTP.wlan[0].mac  State  ETV
attr enum  "BACKOFF=3, DEFER=1, IDLE=0, RECEIVE=8, WAITACK=4, WAITAIFS=2, WAITCTS=6, WAITMULTICAST=5, WAITSIFS=7"
attr enumname  Ieee80211Mac
vector 246  University.wirelessNet.accessPoint.wlan[0].mac  RadioState  ETV
attr enum  "IDLE=0, OFF=4, RECV=1, SLEEP=3, TRANSMIT=2"
attr enumname  RadioState
vector 245  University.wirelessNet.accessPoint.wlan[0].mac  State  ETV
attr enum  "BACKOFF=3, DEFER=1, IDLE=0, RECEIVE=8, WAITACK=4, WAITAIFS=2, WAITCTS=6, WAITMULTICAST=5, WAITSIFS=7"
attr enumname  Ieee80211Mac
vector 14  University.wirelessNet.whostVideoConf.wlan[0].radio  bitrate:vector  ETV
attr interpolationmode  sample-hold
attr title  "tx bitrate, vector"
attr unit  bps
vector 16  University.wirelessNet.whostVideoConf.wlan[0].radio  radioState:vector  ETV
attr interpolationmode  sample-hold
attr title  "radio state (enum), vector"
vector 15  University.wirelessNet.whostVideoConf.wlan[0].radio  channelNo:vector  ETV
attr interpolationmode  sample-hold
attr title  "channel no, vector"
vector 36  University.wirelessNet.whostFTP.wlan[0].radio  bitrate:vector  ETV
attr interpolationmode  sample-hold
attr title  "tx bitrate, vector"
attr unit  bps
vector 38  University.wirelessNet.whostFTP.wlan[0].radio  radioState:vector  ETV
attr interpolationmode  sample-hold
attr title  "radio state (enum), vector"
vector 37  University.wirelessNet.whostFTP.wlan[0].radio  channelNo:vector  ETV
attr interpolationmode  sample-hold
attr title  "channel no, vector"
vector 46  University.wirelessNet.accessPoint.wlan[0].radio  bitrate:vector  ETV
attr interpolationmode  sample-hold
attr title  "tx bitrate, vector"
attr unit  bps
vector 48  University.wirelessNet.accessPoint.wlan[0].radio  radioState:vector  ETV
attr interpolationmode  sample-hold
attr title  "radio state (enum), vector"
vector 47  University.wirelessNet.accessPoint.wlan[0].radio  channelNo:vector  ETV
attr interpolationmode  sample-hold
attr title  "channel no, vector"
vector 44  University.wirelessNet.accessPoint.wlan[0].mac  rcvdPkFromHL:vector(packetBytes)  ETV
attr interpolationmode  none
attr source  packetReceivedFromUpper
attr title  "packets received from higher layer, vector(packetBytes)"
vector 43  University.wirelessNet.accessPoint.wlan[0].mac  sentDownPk:vector(packetBytes)  ETV
attr interpolationmode  none
attr source  packetSentToLower
attr title  "packets sent to lower layer, vector(packetBytes)"
vector 238  University.wirelessNet.whostVideoConf.wlan[0].radio  snirVector  ETV
vector 13  University.wirelessNet.whostVideoConf.wlan[0].mac  rcvdPkFromLL:vector(packetBytes)  ETV
attr interpolationmode  none
attr source  packetReceivedFromLower
attr title  "packets received from lower layer, vector(packetBytes)"
vector 10  University.wirelessNet.whostVideoConf.wlan[0].mac  passedUpPk:vector(packetBytes)  ETV
attr interpolationmode  none
attr source  packetSentToUpper
attr title  "packets passed to higher layer, vector(packetBytes)"
vector 244  University.wirelessNet.whostFTP.wlan[0].radio  snirVector  ETV
vector 35  University.wirelessNet.whostFTP.wlan[0].mac  rcvdPkFromLL:vector(packetBytes)  ETV
attr interpolationmode  none
attr source  packetReceivedFromLower
attr title  "packets received from lower layer, vector(packetBytes)"
vector 32  University.wirelessNet.whostFTP.wlan[0].mac  passedUpPk:vector(packetBytes)  ETV
attr interpolationmode  none
attr source  packetSentToUpper
attr title  "packets passed to higher layer, vector(packetBytes)"
vector 5  University.wirelessNet.whostVideoConf.wlan[0].agent  sentRequest:vector  ETV
attr title  "sent requests, vector"
vector 248  University.wirelessNet.accessPoint.wlan[0].mac  "throughput AC0"  ETV
vector 236  University.wirelessNet.whostVideoConf.wlan[0].mac  "throughput AC0"  ETV
vector 242  University.wirelessNet.whostFTP.wlan[0].mac  "throughput AC0"  ETV
vector 27  University.wirelessNet.whostFTP.wlan[0].agent  sentRequest:vector  ETV
attr title  "sent requests, vector"
vector 12  University.wirelessNet.whostVideoConf.wlan[0].mac  rcvdPkFromHL:vector(packetBytes)  ETV
attr interpolationmode  none
attr source  packetReceivedFromUpper
attr title  "packets received from higher layer, vector(packetBytes)"
vector 11  University.wirelessNet.whostVideoConf.wlan[0].mac  sentDownPk:vector(packetBytes)  ETV
attr interpolationmode  none
attr source  packetSentToLower
attr title  "packets sent to lower layer, vector(packetBytes)"
vector 250  University.wirelessNet.accessPoint.wlan[0].radio  snirVector  ETV
vector 45  University.wirelessNet.accessPoint.wlan[0].mac  rcvdPkFromLL:vector(packetBytes)  ETV
attr interpolationmode  none
attr source  packetReceivedFromLower
attr title  "packets received from lower layer, vector(packetBytes)"
vector 42  University.wirelessNet.accessPoint.wlan[0].mac  passedUpPk:vector(packetBytes)  ETV
attr interpolationmode  none
attr source  packetSentToUpper
attr title  "packets passed to higher layer, vector(packetBytes)"
vector 249  University.wirelessNet.accessPoint.wlan[0].mac  "Mac delay AC0"  ETV
vector 247  University.wirelessNet.accessPoint.wlan[0].mac  "jitter AC0"  ETV
vector 34  University.wirelessNet.whostFTP.wlan[0].mac  rcvdPkFromHL:vector(packetBytes)  ETV
attr interpolationmode  none
attr source  packetReceivedFromUpper
attr title  "packets received from higher layer, vector(packetBytes)"
vector 33  University.wirelessNet.whostFTP.wlan[0].mac  sentDownPk:vector(packetBytes)  ETV
attr interpolationmode  none
attr source  packetSentToLower
attr title  "packets sent to lower layer, vector(packetBytes)"
vector 6  University.wirelessNet.whostVideoConf.wlan[0].agent  acceptConfirm:vector  ETV
attr title  "accepted confirms, vector"
vector 237  University.wirelessNet.whostVideoConf.wlan[0].mac  "Mac delay AC0"  ETV
vector 235  University.wirelessNet.whostVideoConf.wlan[0].mac  "jitter AC0"  ETV
vector 28  University.wirelessNet.whostFTP.wlan[0].agent  acceptConfirm:vector  ETV
attr title  "accepted confirms, vector"
vector 243  University.wirelessNet.whostFTP.wlan[0].mac  "Mac delay AC0"  ETV
vector 241  University.wirelessNet.whostFTP.wlan[0].mac  "jitter AC0"  ETV
vector 21  University.wirelessNet.whostFTP.tcpApp[0]  numActiveSessions:vector  ETV
attr interpolationmode  sample-hold
attr source  sum(connect)
attr title  "number of active sessions, vector"
vector 314  University.wirelessNet.whostFTP.tcp  tcpRcvQueueBytes  ETV
vector 301  University.wirelessNet.whostFTP.tcp  "advertised window"  ETV
vector 300  University.wirelessNet.whostFTP.tcp  "receive window"  ETV
vector 303  University.wirelessNet.whostFTP.tcp  "sent ack"  ETV
vector 22  University.wirelessNet.whostFTP.networkLayer.arp  sentReq:vector  ETV
attr title  "ARP request sent, vector"
vector 55  University.wirelessNet.accessPoint.eth[0].mac  rxPkFromHL:vector(packetBytes)  ETV
attr interpolationmode  none
attr source  rxPkFromHL
attr title  "packet bytes from higher layer, vector(packetBytes)"
vector 50  University.wirelessNet.accessPoint.eth[0].mac  txPk:vector(packetBytes)  ETV
attr interpolationmode  none
attr source  txPk
attr title  "packets transmitted, vector(packetBytes)"
vector 65  University.remoteR.eth[0].mac  rxPkOk:vector(packetBytes)  ETV
attr interpolationmode  none
attr source  rxPkOk
attr title  "packets received OK, vector(packetBytes)"
vector 66  University.remoteR.eth[0].mac  passedUpPk:vector(packetBytes)  ETV
attr interpolationmode  none
attr source  packetSentToUpper
attr title  "packets passed to higher layer, vector(packetBytes)"
vector 74  University.remoteR.eth[0].encap  decapPk:vector(packetBytes)  ETV
attr interpolationmode  none
attr source  decapPk
attr title  "packets decapsulated, vector(packetBytes)"
vector 60  University.remoteR.networkLayer.arp  sentReply:vector  ETV
attr title  "ARP replies sent, vector"
vector 73  University.remoteR.eth[0].encap  encapPk:vector(packetBytes)  ETV
attr interpolationmode  none
attr source  encapPk
attr title  "packets encapsulated, vector(packetBytes)"
vector 69  University.remoteR.eth[0].mac  rxPkFromHL:vector(packetBytes)  ETV
attr interpolationmode  none
attr source  rxPkFromHL
attr title  "packet bytes from higher layer, vector(packetBytes)"
vector 64  University.remoteR.eth[0].mac  txPk:vector(packetBytes)  ETV
attr interpolationmode  none
attr source  txPk
attr title  "packets transmitted, vector(packetBytes)"
vector 51  University.wirelessNet.accessPoint.eth[0].mac  rxPkOk:vector(packetBytes)  ETV
attr interpolationmode  none
attr source  rxPkOk
attr title  "packets received OK, vector(packetBytes)"
vector 52  University.wirelessNet.accessPoint.eth[0].mac  passedUpPk:vector(packetBytes)  ETV
attr interpolationmode  none
attr source  packetSentToUpper
attr title  "packets passed to higher layer, vector(packetBytes)"
vector 88  University.remoteR.ppp[0].queue  rcvdPk:vector(packetBytes)  ETV
attr interpolationmode  none
attr title  "received packets, vector(packetBytes)"
vector 90  University.remoteR.ppp[0].queue  queueingTime:vector  ETV
attr interpolationmode  none
attr title  "queueing time, vector"
vector 97  University.remoteR.ppp[0].ppp  rcvdPkFromHL:vector(packetBytes)  ETV
attr interpolationmode  none
attr source  packetReceivedFromUpper
attr title  "packets received from higher layer, vector(packetBytes)"
vector 93  University.remoteR.ppp[0].ppp  txPk:vector(packetBytes)  ETV
attr interpolationmode  none
attr source  packetSentToLower
attr title  "packets transmitted, vector(packetBytes)"
vector 110  University.mainR.ppp[0].ppp  rxPkOk:vector(packetBytes)  ETV
attr interpolationmode  none
attr source  rxPkOk
attr title  "packets received OK, vector(packetBytes)"
vector 114  University.mainR.ppp[0].ppp  passedUpPk:vector(packetBytes)  ETV
attr interpolationmode  none
attr source  packetSentToUpper
attr title  "packets passed to higher layer, vector(packetBytes)"
vector 126  University.mainR.ppp[2].queue  rcvdPk:vector(packetBytes)  ETV
attr interpolationmode  none
attr title  "received packets, vector(packetBytes)"
vector 128  University.mainR.ppp[2].queue  queueingTime:vector  ETV
attr interpolationmode  none
attr title  "queueing time, vector"
vector 135  University.mainR.ppp[2].ppp  rcvdPkFromHL:vector(packetBytes)  ETV
attr interpolationmode  none
attr source  packetReceivedFromUpper
attr title  "packets received from higher layer, vector(packetBytes)"
vector 131  University.mainR.ppp[2].ppp  txPk:vector(packetBytes)  ETV
attr interpolationmode  none
attr source  packetSentToLower
attr title  "packets transmitted, vector(packetBytes)"
vector 17  University.wirelessNet.whostVideoConf.wlan[0].radio  lossRate:vector  ETV
attr interpolationmode  backward-sample-hold
attr title  "packet loss rate, vector"
vector 39  University.wirelessNet.whostFTP.wlan[0].radio  lossRate:vector  ETV
attr interpolationmode  backward-sample-hold
attr title  "packet loss rate, vector"
vector 204  University.Server.ppp[0].ppp  rxPkOk:vector(packetBytes)  ETV
attr interpolationmode  none
attr source  rxPkOk
attr title  "packets received OK, vector(packetBytes)"
vector 208  University.Server.ppp[0].ppp  passedUpPk:vector(packetBytes)  ETV
attr interpolationmode  none
attr source  packetSentToUpper
attr title  "packets passed to higher layer, vector(packetBytes)"
vector 280  University.Server.tcp  "rcvd seq"  ETV
vector 281  University.Server.tcp  "rcvd ack"  ETV
vector 277  University.Server.tcp  "advertised window"  ETV
vector 275  University.Server.tcp  "send window"  ETV
vector 290  University.Server.tcp  tcpRcvQueueBytes  ETV
vector 276  University.Server.tcp  "receive window"  ETV
vector 279  University.Server.tcp  "sent ack"  ETV
vector 198  University.Server.ppp[0].queue  rcvdPk:vector(packetBytes)  ETV
attr interpolationmode  none
attr title  "received packets, vector(packetBytes)"
vector 200  University.Server.ppp[0].queue  queueingTime:vector  ETV
attr interpolationmode  none
attr title  "queueing time, vector"
vector 207  University.Server.ppp[0].ppp  rcvdPkFromHL:vector(packetBytes)  ETV
attr interpolationmode  none
attr source  packetReceivedFromUpper
attr title  "packets received from higher layer, vector(packetBytes)"
vector 203  University.Server.ppp[0].ppp  txPk:vector(packetBytes)  ETV
attr interpolationmode  none
attr source  packetSentToLower
attr title  "packets transmitted, vector(packetBytes)"
vector 288  University.Server.tcp  "rcvd naseg"  ETV
vector 132  University.mainR.ppp[2].ppp  rxPkOk:vector(packetBytes)  ETV
attr interpolationmode  none
attr source  rxPkOk
attr title  "packets received OK, vector(packetBytes)"
vector 136  University.mainR.ppp[2].ppp  passedUpPk:vector(packetBytes)  ETV
attr interpolationmode  none
attr source  packetSentToUpper
attr title  "packets passed to higher layer, vector(packetBytes)"
vector 104  University.mainR.ppp[0].queue  rcvdPk:vector(packetBytes)  ETV
attr interpolationmode  none
attr title  "received packets, vector(packetBytes)"
vector 106  University.mainR.ppp[0].queue  queueingTime:vector  ETV
attr interpolationmode  none
attr title  "queueing time, vector"
vector 113  University.mainR.ppp[0].ppp  rcvdPkFromHL:vector(packetBytes)  ETV
attr interpolationmode  none
attr source  packetReceivedFromUpper
attr title  "packets received from higher layer, vector(packetBytes)"
vector 109  University.mainR.ppp[0].ppp  txPk:vector(packetBytes)  ETV
attr interpolationmode  none
attr source  packetSentToLower
attr title  "packets transmitted, vector(packetBytes)"
vector 94  University.remoteR.ppp[0].ppp  rxPkOk:vector(packetBytes)  ETV
attr interpolationmode  none
attr source  rxPkOk
attr title  "packets received OK, vector(packetBytes)"
vector 98  University.remoteR.ppp[0].ppp  passedUpPk:vector(packetBytes)  ETV
attr interpolationmode  none
attr source  packetSentToUpper
attr title  "packets passed to higher layer, vector(packetBytes)"
vector 304  University.wirelessNet.whostFTP.tcp  "rcvd seq"  ETV
vector 305  University.wirelessNet.whostFTP.tcp  "rcvd ack"  ETV
vector 299  University.wirelessNet.whostFTP.tcp  "send window"  ETV
vector 19  University.wirelessNet.whostFTP.tcpApp[0]  sentPk:vector(packetBytes)  ETV
attr interpolationmode  none
attr source  sentPk
attr title  "packets sent, vector(packetBytes)"
vector 302  University.wirelessNet.whostFTP.tcp  "sent seq"  ETV
vector 306  University.wirelessNet.whostFTP.tcp  "unacked bytes"  ETV
vector 307  University.wirelessNet.whostFTP.tcp  "rcvd dupAcks"  ETV
vector 322  University.wirelessNet.whostFTP.tcp  numRTOs  ETV
vector 317  University.wirelessNet.whostFTP.tcp  ssthresh  ETV
vector 316  University.wirelessNet.whostFTP.tcp  cwnd  ETV
vector 312  University.wirelessNet.whostFTP.tcp  "rcvd naseg"  ETV
vector 282  University.Server.tcp  "unacked bytes"  ETV
vector 283  University.Server.tcp  "rcvd dupAcks"  ETV
vector 190  University.Server.tcpApp[1]  rcvdPk:vector(packetBytes)  ETV
attr interpolationmode  none
attr source  rcvdPk
attr title  "packets received, vector(packetBytes)"
vector 192  University.Server.tcpApp[1]  endToEndDelay:vector  ETV
attr interpolationmode  none
attr source  messageAge(rcvdPk)
attr title  "end-to-end delay, vector"
attr unit  s
vector 191  University.Server.tcpApp[1]  sentPk:vector(packetBytes)  ETV
attr interpolationmode  none
attr source  sentPk
attr title  "packets sent, vector(packetBytes)"
vector 278  University.Server.tcp  "sent seq"  ETV
vector 298  University.Server.tcp  numRTOs  ETV
vector 293  University.Server.tcp  ssthresh  ETV
vector 292  University.Server.tcp  cwnd  ETV
vector 18  University.wirelessNet.whostFTP.tcpApp[0]  rcvdPk:vector(packetBytes)  ETV
attr interpolationmode  none
attr source  rcvdPk
attr title  "packets received, vector(packetBytes)"
vector 20  University.wirelessNet.whostFTP.tcpApp[0]  endToEndDelay:vector  ETV
attr interpolationmode  none
attr source  messageAge(rcvdPk)
attr title  "end-to-end delay, vector"
attr unit  s
vector 49  University.wirelessNet.accessPoint.wlan[0].radio  lossRate:vector  ETV
attr interpolationmode  backward-sample-hold
attr title  "packet loss rate, vector"
vector 59  University.remoteR.networkLayer.arp  sentReq:vector  ETV
attr title  "ARP request sent, vector"
vector 23  University.wirelessNet.whostFTP.networkLayer.arp  sentReply:vector  ETV
attr title  "ARP replies sent, vector"
vector 362  University.wirelessNet.whostFTP.tcp  tcpRcvQueueBytes  ETV
vector 349  University.wirelessNet.whostFTP.tcp  "advertised window"  ETV
vector 348  University.wirelessNet.whostFTP.tcp  "receive window"  ETV
vector 351  University.wirelessNet.whostFTP.tcp  "sent ack"  ETV
292	20144 285 14003 31298 78.743397049761 177.452581475415 9 1460 8760 29200 157738400
293	20429 189 14003 30843 78.743397049761 174.597839183318 6 2920 4380 18980 61816400
298	20618 142 14003 30843 78.743397049761 174.597839183318 5 1 5 15 55
275	20760 412 4664 31298 24.887960281339 177.452581475415 12 65535 1460000 16125535 23451894836225
276	21172 849 4664 30843 24.887960281339 174.597839183318 25 65535 1460000 35105535 51162694836225
277	22021 882 4664 30843 24.887960281339 174.597839183318 26 315536 1711462 41694462 70457553904474
278	22903 171 13505 21332 75.743397049761 120.743397049761 5 6221991 6221991 31109955 1.935658600204e+14
279	23074 826 4664 30843 24.887960281339 174.597839183318 25 250001 251462 6273391 1574229669883
280	23900 799 4664 31298 24.887960281339 177.452581475415 24 250000 251462 6019004 1509529763394
281	24699 793 4664 31298 24.887960281339 177.452581475415 24 0 6221993 118217839 7.3555039251737e+14
282	25492 201 13498 31298 75.741552524629 177.452581475415 7 0 1 4 4
283	25693 344 13502 31298 75.743397049761 177.452581475415 12 0 4 20 60
288	26037 281 5151 30838 27.886353769539 174.597101671518 10 1 10 55 385
290	26318 729 4664 30843 24.887960281339 174.597839183318 26 0 0 0 0
vector 328  University.Server.tcp  "rcvd seq"  ETV
vector 329  University.Server.tcp  "rcvd ack"  ETV
vector 325  University.Server.tcp  "advertised window"  ETV
vector 323  University.Server.tcp  "send window"  ETV
vector 338  University.Server.tcp  tcpRcvQueueBytes  ETV
vector 324  University.Server.tcp  "receive window"  ETV
vector 327  University.Server.tcp  "sent ack"  ETV
vector 336  University.Server.tcp  "rcvd naseg"  ETV
vector 376  University.Server.tcp  "rcvd seq"  ETV
vector 377  University.Server.tcp  "rcvd ack"  ETV
vector 352  University.wirelessNet.whostFTP.tcp  "rcvd seq"  ETV
vector 353  University.wirelessNet.whostFTP.tcp  "rcvd ack"  ETV
vector 347  University.wirelessNet.whostFTP.tcp  "send window"  ETV
vector 350  University.wirelessNet.whostFTP.tcp  "sent seq"  ETV
vector 354  University.wirelessNet.whostFTP.tcp  "unacked bytes"  ETV
vector 355  University.wirelessNet.whostFTP.tcp  "rcvd dupAcks"  ETV
vector 370  University.wirelessNet.whostFTP.tcp  numRTOs  ETV
vector 365  University.wirelessNet.whostFTP.tcp  ssthresh  ETV
vector 364  University.wirelessNet.whostFTP.tcp  cwnd  ETV
vector 360  University.wirelessNet.whostFTP.tcp  "rcvd naseg"  ETV
316	28236 283 9717 27064 54.854890728423 153.565523167409 9 1460 8760 29200 157738400
317	28519 187 9717 26517 54.854890728423 150.710753875312 6 2920 4380 18980 61816400
322	28706 140 9717 26517 54.854890728423 150.710753875312 5 1 5 15 55
299	28846 372 9078 27064 51.854890728423 153.565523167409 11 65535 1460000 14665535 21320294836225
300	29218 878 585 35374 1 201.565830497069 28 65535 1460000 33907675 49048274181125
301	30096 911 585 35374 1 201.565830497069 29 65535 7681993 183301012 1.3968534055874e+15
302	31007 163 9082 16997 51.854890728423 96.854890728423 5 250001 250001 1250005 312502500005
303	31170 858 585 35374 1 201.565830497069 28 0 6221993 143105811 8.9040318008557e+14
304	32028 894 9078 39742 51.854890728423 225.419135344033 26 6221990 6221993 161771775 1.006542584102e+15
305	32922 863 9078 39742 51.854890728423 225.419135344033 26 0 251462 6273391 1574229669883
306	33785 175 9082 27064 51.854890728423 153.565523167409 6 0 1460 1463 2131603
307	33960 339 9686 27088 54.85327808329 153.565919679209 12 0 4 20 60
312	34299 286 9725 35374 54.854890728423 201.565830497069 10 1 10 55 385
314	34585 749 585 35374 1 201.565830497069 29 0 0 0 0
vector 330  University.Server.tcp  "unacked bytes"  ETV
vector 331  University.Server.tcp  "rcvd dupAcks"  ETV
vector 326  University.Server.tcp  "sent seq"  ETV
vector 346  University.Server.tcp  numRTOs  ETV
vector 341  University.Server.tcp  ssthresh  ETV
vector 340  University.Server.tcp  cwnd  ETV
vector 410  University.wirelessNet.whostFTP.tcp  tcpRcvQueueBytes  ETV
vector 397  University.wirelessNet.whostFTP.tcp  "advertised window"  ETV
vector 396  University.wirelessNet.whostFTP.tcp  "receive window"  ETV
vector 399  University.wirelessNet.whostFTP.tcp  "sent ack"  ETV
340	35919 284 40927 58304 231.30848372897 330.016881484284 9 1460 8760 29200 157738400
341	36203 188 40927 57833 231.30848372897 327.162862862527 6 2920 4380 18980 61816400
346	36391 141 40927 57833 231.30848372897 327.162862862527 5 1 5 15 55
323	36532 416 31302 58304 177.453037960548 330.016881484284 12 65535 1458176 16105471 23393344552961
324	36948 865 31302 57833 177.453037960548 327.162862862527 25 65535 1460000 35105535 51162694836225
325	37813 928 31302 57833 177.453037960548 327.162862862527 26 38457015 39852941 1033372916 4.1075117375477e+16
326	38741 175 40429 48388 228.30848372897 273.30848372897 5 44363260 44363260 221816300 9.840494189138e+15
327	38916 892 31302 57833 177.453037960548 327.162862862527 25 38391480 38392941 959810366 3.6849437559526e+16
328	39808 859 31302 58304 177.453037960548 330.016881484284 24 38391479 38392941 921414500 3.5375195046476e+16
329	40667 824 31302 58304 177.453037960548 330.016881484284 24 0 44363262 842901950 3.739387880599e+16
330	41491 202 40422 58304 228.306630203838 330.016881484284 7 0 1 4 4
331	41693 345 40426 58304 228.30848372897 330.016881484284 12 0 4 20 60
336	42038 289 31789 57828 180.452273448748 327.162143350727 10 1 10 55 385
338	42327 745 31302 57833 177.453037960548 327.162862862527 26 0 0 0 0
vector 373  University.Server.tcp  "advertised window"  ETV
vector 371  University.Server.tcp  "send window"  ETV
vector 386  University.Server.tcp  tcpRcvQueueBytes  ETV
vector 372  University.Server.tcp  "receive window"  ETV
vector 375  University.Server.tcp  "sent ack"  ETV
vector 384  University.Server.tcp  "rcvd naseg"  ETV
vector 424  University.Server.tcp  "rcvd seq"  ETV
vector 425  University.Server.tcp  "rcvd ack"  ETV
vector 400  University.wirelessNet.whostFTP.tcp  "rcvd seq"  ETV
vector 401  University.wirelessNet.whostFTP.tcp  "rcvd ack"  ETV
vector 395  University.wirelessNet.whostFTP.tcp  "send window"  ETV
vector 398  University.wirelessNet.whostFTP.tcp  "sent seq"  ETV
vector 402  University.wirelessNet.whostFTP.tcp  "unacked bytes"  ETV
vector 403  University.wirelessNet.whostFTP.tcp  "rcvd dupAcks"  ETV
vector 418  University.wirelessNet.whostFTP.tcp  numRTOs  ETV
vector 413  University.wirelessNet.whostFTP.tcp  ssthresh  ETV
vector 412  University.wirelessNet.whostFTP.tcp  cwnd  ETV
vector 408  University.wirelessNet.whostFTP.tcp  "rcvd naseg"  ETV
364	44159 288 36547 54055 207.419968407632 306.129787176278 9 1460 8760 29200 157738400
365	44447 192 36547 53523 207.419968407632 303.275795554521 6 2920 4380 18980 61816400
370	44639 145 36547 53523 207.419968407632 303.275795554521 5 1 5 15 55
347	44784 383 35908 54055 204.419968407632 306.129787176278 11 65535 1460000 14665535 21320294836225
348	45167 970 27094 62364 153.565919679209 354.129848176278 28 65535 1460000 33907675 49048274181125
349	46137 1029 27094 62364 153.565919679209 354.129848176278 29 65535 45823262 1098691468 5.0268677560605e+16
350	47166 180 35912 43905 204.419968407632 249.419968407632 5 38391480 38391480 191957400 7.369528682952e+15
351	47346 973 27094 62364 153.565919679209 354.129848176278 28 0 44363262 1020354998 4.5266274867112e+16
352	48319 936 35908 66828 204.419968407632 377.983761587768 26 44363259 44363262 1153444769 5.1170570582056e+16
353	49255 929 35908 66828 204.419968407632 377.983761587768 26 0 38392941 959810366 3.6849437559526e+16
354	50184 177 35912 54055 204.419968407632 306.129787176278 6 0 1460 1463 2131603
355	50361 348 36516 54079 207.419197762499 306.130219688078 12 0 4 20 60
360	50709 291 36555 62364 207.419968407632 354.129848176278 10 1 10 55 385
362	51000 841 27094 62364 153.565919679209 354.129848176278 29 0 0 0 0
vector 378  University.Server.tcp  "unacked bytes"  ETV
vector 379  University.Server.tcp  "rcvd dupAcks"  ETV
vector 374  University.Server.tcp  "sent seq"  ETV
vector 394  University.Server.tcp  numRTOs  ETV
vector 389  University.Server.tcp  ssthresh  ETV
vector 388  University.Server.tcp  cwnd  ETV
vector 458  University.wirelessNet.whostFTP.tcp  tcpRcvQueueBytes  ETV
vector 445  University.wirelessNet.whostFTP.tcp  "advertised window"  ETV
vector 444  University.wirelessNet.whostFTP.tcp  "receive window"  ETV
vector 447  University.wirelessNet.whostFTP.tcp  "sent ack"  ETV
388	52426 288 68010 85325 383.872765737839 482.581127493153 9 1460 8760 29200 157738400
389	52714 192 68010 84854 383.872765737839 479.727153871396 6 2920 4380 18980 61816400
394	52906 145 68010 84854 383.872765737839 479.727153871396 5 1 5 15 55
371	53051 418 58308 85325 330.017301969417 482.581127493153 12 65535 1458176 16105471 23393344552961
372	53469 873 58308 84854 330.017301969417 479.727153871396 25 65535 1460000 35105535 51162694836225
373	54342 936 58308 84854 330.017301969417 479.727153871396 26 76598090 77994016 2025040866 1.5772630681577e+17
374	55278 180 67512 75420 380.872765737839 425.872765737839 5 82504326 82504326 412521630 3.4034819043571e+16
375	55458 900 58308 84854 330.017301969417 479.727153871396 25 76532555 76534016 1913337241 1.4643437592418e+17
376	56358 1000 34693 85325 198.452229963615 482.581127493153 28 251462 76534016 1837806148 1.4057672553194e+17
377	57358 969 34693 85325 198.452229963615 482.581127493153 28 0 82504328 1592470176 1.2948716680323e+17
378	58327 203 67505 85325 380.870894212707 482.581127493153 7 0 1 4 4
379	58530 348 67509 85325 380.872765737839 482.581127493153 12 0 4 20 60
384	58878 291 58795 84849 333.016573457617 479.726443359596 10 1 10 55 385
386	59169 754 58308 84854 330.017301969417 479.727153871396 26 0 0 0 0
vector 421  University.Server.tcp  "advertised window"  ETV