file 48428970 1471543377                                        
version 2
run _10on-6-20160818-19:19:39-30525
attr configname _10on
attr datetime 20160818-19:19:39
attr experiment _10on
attr inifile omnetpp.ini
attr iterationvars ""
attr iterationvars2 $repetition=6
attr measurement ""
attr network University
attr processid 30525
attr repetition 6
attr replication #6
attr resultdir results
attr runnumber 6
attr seedset 6

vector 276  University.whostFTP.tcpApp[0]  numActiveSessions:vector  ETV
attr interpolationmode  sample-hold
attr source  sum(connect)
attr title  "number of active sessions, vector"
vector 83  University.profLaptop.udpApp[0]  sentPk:vector(packetBytes)  ETV
attr interpolationmode  none
attr source  sentPk
attr title  "packets sent, vector(packetBytes)"
vector 118  University.CCTV.udpApp[0]  reqStreamBytes:vector  ETV
attr interpolationmode  none
attr title  "requested stream bytes, vector"
vector 119  University.CCTV.udpApp[0]  sentPk:vector(packetBytes)  ETV
attr interpolationmode  none
attr source  sentPk
attr title  "packets sent, vector(packetBytes)"
vector 258  University.whostVideoConf.udpApp[0]  sentPk:vector(packetBytes)  ETV
attr interpolationmode  none
attr source  sentPk
attr title  "packets sent, vector(packetBytes)"
vector 64  University.ccTVMonitoringHost.udpApp[0]  rcvdPk:vector(packetBytes)  ETV
attr interpolationmode  none
attr source  rcvdPk
attr title  "packets received, vector(packetBytes)"
vector 65  University.ccTVMonitoringHost.udpApp[0]  endToEndDelay:vector  ETV
attr interpolationmode  none
attr source  messageAge(rcvdPk)
attr title  "end-to-end delay, vector"
attr unit  s
vector 140  University.whttpStudents[0].tcpApp[0]  numActiveSessions:vector  ETV
attr interpolationmode  sample-hold
attr source  sum(connect)
attr title  "number of active sessions, vector"
vector 138  University.whttpStudents[0].tcpApp[0]  sentPk:vector(packetBytes)  ETV
attr interpolationmode  none
attr source  sentPk
attr title  "packets sent, vector(packetBytes)"
vector 101  University.Server.tcpApp[0]  rcvdPk:vector(packetBytes)  ETV
attr interpolationmode  none
attr source  rcvdPk
attr title  "packets received, vector(packetBytes)"
vector 103  University.Server.tcpApp[0]  endToEndDelay:vector  ETV
attr interpolationmode  none
attr source  messageAge(rcvdPk)
attr title  "end-to-end delay, vector"
attr unit  s
vector 102  University.Server.tcpApp[0]  sentPk:vector(packetBytes)  ETV
attr interpolationmode  none
attr source  sentPk
attr title  "packets sent, vector(packetBytes)"
vector 257  University.whostVideoConf.udpApp[0]  rcvdPk:vector(packetBytes)  ETV
attr interpolationmode  none
attr source  rcvdPk
attr title  "packets received, vector(packetBytes)"
vector 259  University.whostVideoConf.udpApp[0]  rcvdPkLifetime:vector  ETV
attr interpolationmode  none
attr source  messageAge(rcvdPk)
attr title  "received packet lifetime, vector"
attr unit  s
vector 82  University.profLaptop.udpApp[0]  rcvdPk:vector(packetBytes)  ETV
attr interpolationmode  none
attr source  rcvdPk
attr title  "packets received, vector(packetBytes)"
vector 84  University.profLaptop.udpApp[0]  rcvdPkLifetime:vector  ETV
attr interpolationmode  none
attr source  messageAge(rcvdPk)
attr title  "received packet lifetime, vector"
attr unit  s
vector 274  University.whostFTP.tcpApp[0]  sentPk:vector(packetBytes)  ETV
attr interpolationmode  none
attr source  sentPk
attr title  "packets sent, vector(packetBytes)"
vector 224  University.whttpStudents[7].tcpApp[0]  numActiveSessions:vector  ETV
attr interpolationmode  sample-hold
attr source  sum(connect)
attr title  "number of active sessions, vector"
vector 222  University.whttpStudents[7].tcpApp[0]  sentPk:vector(packetBytes)  ETV
attr interpolationmode  none
attr source  sentPk
attr title  "packets sent, vector(packetBytes)"
vector 221  University.whttpStudents[7].tcpApp[0]  rcvdPk:vector(packetBytes)  ETV
attr interpolationmode  none
attr source  rcvdPk
attr title  "packets received, vector(packetBytes)"
vector 223  University.whttpStudents[7].tcpApp[0]  endToEndDelay:vector  ETV
attr interpolationmode  none
attr source  messageAge(rcvdPk)
attr title  "end-to-end delay, vector"
attr unit  s
vector 104  University.Server.tcpApp[1]  rcvdPk:vector(packetBytes)  ETV
attr interpolationmode  none
attr source  rcvdPk
attr title  "packets received, vector(packetBytes)"
vector 106  University.Server.tcpApp[1]  endToEndDelay:vector  ETV
attr interpolationmode  none
attr source  messageAge(rcvdPk)
attr title  "end-to-end delay, vector"
attr unit  s
vector 105  University.Server.tcpApp[1]  sentPk:vector(packetBytes)  ETV
attr interpolationmode  none
attr source  sentPk
attr title  "packets sent, vector(packetBytes)"
vector 273  University.whostFTP.tcpApp[0]  rcvdPk:vector(packetBytes)  ETV
attr interpolationmode  none
attr source  rcvdPk
attr title  "packets received, vector(packetBytes)"
vector 275  University.whostFTP.tcpApp[0]  endToEndDelay:vector  ETV
attr interpolationmode  none
attr source  messageAge(rcvdPk)
attr title  "end-to-end delay, vector"
attr unit  s
vector 248  University.whttpStudents[9].tcpApp[0]  numActiveSessions:vector  ETV
attr interpolationmode  sample-hold
attr source  sum(connect)
attr title  "number of active sessions, vector"
vector 246  University.whttpStudents[9].tcpApp[0]  sentPk:vector(packetBytes)  ETV
attr interpolationmode  none
attr source  sentPk
attr title  "packets sent, vector(packetBytes)"
vector 212  University.whttpStudents[6].tcpApp[0]  numActiveSessions:vector  ETV
attr interpolationmode  sample-hold
attr source  sum(connect)
attr title  "number of active sessions, vector"
vector 210  University.whttpStudents[6].tcpApp[0]  sentPk:vector(packetBytes)  ETV
attr interpolationmode  none
attr source  sentPk
attr title  "packets sent, vector(packetBytes)"
vector 245  University.whttpStudents[9].tcpApp[0]  rcvdPk:vector(packetBytes)  ETV
attr interpolationmode  none
attr source  rcvdPk
attr title  "packets received, vector(packetBytes)"
vector 247  University.whttpStudents[9].tcpApp[0]  endToEndDelay:vector  ETV
attr interpolationmode  none
attr source  messageAge(rcvdPk)
attr title  "end-to-end delay, vector"
attr unit  s
vector 164  University.whttpStudents[2].tcpApp[0]  numActiveSessions:vector  ETV
attr interpolationmode  sample-hold
attr source  sum(connect)
attr title  "number of active sessions, vector"
vector 176  University.whttpStudents[3].tcpApp[0]  numActiveSessions:vector  ETV
attr interpolationmode  sample-hold
attr source  sum(connect)
attr title  "number of active sessions, vector"
vector 162  University.whttpStudents[2].tcpApp[0]  sentPk:vector(packetBytes)  ETV
attr interpolationmode  none
attr source  sentPk
attr title  "packets sent, vector(packetBytes)"
vector 174  University.whttpStudents[3].tcpApp[0]  sentPk:vector(packetBytes)  ETV
attr interpolationmode  none
attr source  sentPk
attr title  "packets sent, vector(packetBytes)"
vector 161  University.whttpStudents[2].tcpApp[0]  rcvdPk:vector(packetBytes)  ETV
attr interpolationmode  none
attr source  rcvdPk
attr title  "packets received, vector(packetBytes)"
vector 163  University.whttpStudents[2].tcpApp[0]  endToEndDelay:vector  ETV
attr interpolationmode  none
attr source  messageAge(rcvdPk)
attr title  "end-to-end delay, vector"
attr unit  s
vector 209  University.whttpStudents[6].tcpApp[0]  rcvdPk:vector(packetBytes)  ETV
attr interpolationmode  none
attr source  rcvdPk
attr title  "packets received, vector(packetBytes)"
vector 211  University.whttpStudents[6].tcpApp[0]  endToEndDelay:vector  ETV
attr interpolationmode  none
attr source  messageAge(rcvdPk)
attr title  "end-to-end delay, vector"
attr unit  s
vector 173  University.whttpStudents[3].tcpApp[0]  rcvdPk:vector(packetBytes)  ETV
attr interpolationmode  none
attr source  rcvdPk
attr title  "packets received, vector(packetBytes)"
vector 175  University.whttpStudents[3].tcpApp[0]  endToEndDelay:vector  ETV
attr interpolationmode  none
attr source  messageAge(rcvdPk)
attr title  "end-to-end delay, vector"
attr unit  s
vector 188  University.whttpStudents[4].tcpApp[0]  numActiveSessions:vector  ETV
attr interpolationmode  sample-hold
attr source  sum(connect)
attr title  "number of active sessions, vector"
vector 186  University.whttpStudents[4].tcpApp[0]  sentPk:vector(packetBytes)  ETV
attr interpolationmode  none
attr source  sentPk
attr title  "packets sent, vector(packetBytes)"
vector 185  University.whttpStudents[4].tcpApp[0]  rcvdPk:vector(packetBytes)  ETV
attr interpolationmode  none
attr source  rcvdPk
attr title  "packets received, vector(packetBytes)"
vector 187  University.whttpStudents[4].tcpApp[0]  endToEndDelay:vector  ETV
attr interpolationmode  none
attr source  messageAge(rcvdPk)
attr title  "end-to-end delay, vector"
attr unit  s
vector 200  University.whttpStudents[5].tcpApp[0]  numActiveSessions:vector  ETV
attr interpolationmode  sample-hold
attr source  sum(connect)
attr title  "number of active sessions, vector"
vector 198  University.whttpStudents[5].tcpApp[0]  sentPk:vector(packetBytes)  ETV
attr interpolationmode  none
attr source  sentPk
attr title  "packets sent, vector(packetBytes)"
vector 137  University.whttpStudents[0].tcpApp[0]  rcvdPk:vector(packetBytes)  ETV
attr interpolationmode  none
attr source  rcvdPk
attr title  "packets received, vector(packetBytes)"
vector 139  University.whttpStudents[0].tcpApp[0]  endToEndDelay:vector  ETV
attr interpolationmode  none
attr source  messageAge(rcvdPk)
attr title  "end-to-end delay, vector"
attr unit  s
vector 197  University.whttpStudents[5].tcpApp[0]  rcvdPk:vector(packetBytes)  ETV
attr interpolationmode  none
attr source  rcvdPk
attr title  "packets received, vector(packetBytes)"
vector 199  University.whttpStudents[5].tcpApp[0]  endToEndDelay:vector  ETV
attr interpolationmode  none
attr source  messageAge(rcvdPk)
attr title  "end-to-end delay, vector"
attr unit  s
vector 152  University.whttpStudents[1].tcpApp[0]  numActiveSessions:vector  ETV
attr interpolationmode  sample-hold
attr source  sum(connect)
attr title  "number of active sessions, vector"
vector 150  University.whttpStudents[1].tcpApp[0]  sentPk:vector(packetBytes)  ETV
attr interpolationmode  none
attr source  sentPk
attr title  "packets sent, vector(packetBytes)"
vector 149  University.whttpStudents[1].tcpApp[0]  rcvdPk:vector(packetBytes)  ETV
attr interpolationmode  none
attr source  rcvdPk
attr title  "packets received, vector(packetBytes)"
vector 151  University.whttpStudents[1].tcpApp[0]  endToEndDelay:vector  ETV
attr interpolationmode  none
attr source  messageAge(rcvdPk)
attr title  "end-to-end delay, vector"
attr unit  s
vector 236  University.whttpStudents[8].tcpApp[0]  numActiveSessions:vector  ETV
attr interpolationmode  sample-hold
attr source  sum(connect)
attr title  "number of active sessions, vector"
vector 234  University.whttpStudents[8].tcpApp[0]  sentPk:vector(packetBytes)  ETV
attr interpolationmode  none
attr source  sentPk
attr title  "packets sent, vector(packetBytes)"
vector 233  University.whttpStudents[8].tcpApp[0]  rcvdPk:vector(packetBytes)  ETV
attr interpolationmode  none
attr source  rcvdPk
attr title  "packets received, vector(packetBytes)"
vector 235  University.whttpStudents[8].tcpApp[0]  endToEndDelay:vector  ETV
attr interpolationmode  none
attr source  messageAge(rcvdPk)
attr title  "end-to-end delay, vector"
attr unit  s
64	11356 2773451 311 238286246 0.040400085506 3069.000400085506 76725 10240 10240 785664000 8045199360000
65	2784807 3463486 311 238286246 0.040400085506 3069.000400085506 76725 0.017080129996 0.068924129753 1330.7738125382 23.370673852488
82	6248293 2694625 19787 238286314 1.046356752172 3069.011396315978 76723 1400 1400 107412200 150377080000
83	8942918 2697223 61 238286280 0.008376254625 3069.008376254625 76726 1400 1400 107416400 150382960000
84	11640141 3459612 19787 238286314 1.046356752172 3069.011396315978 76723 0.016345609907 1.011306046101 1335.9320028593 32.981219902107
101	15099753 36917 14158 238020573 0.893939786763 3062.32974623423 1119 1 1 1119 1119
102	15136670 42703 14158 238020573 0.893939786763 3062.32974623423 1119 497 5710207 922078525 1.4991976621212e+15
103	15179373 51272 14158 238020573 0.893939786763 3062.32974623423 1119 0.07781828485 0.111795963964 88.408862474992 6.9932994770524
104	15230645 7869 551834 237208640 8.668533919906 3053.204917968074 201 1048576 1048576 210763776 2.2100183718298e+14
105	15238514 6663 551834 237208640 8.668533919906 3053.204917968074 201 1 1 201 201
106	15245177 9414 551834 237208640 8.668533919906 3053.204917968074 201 4.282087666637 47.591420850321 2943.2064203368 53807.668507141
118	15254591 33 116 116 0.02331995551 0.02331995551 1 1433600000 1433600000 1433600000 2.05520896e+18
119	15254624 2773917 116 238285889 0.02331995551 3068.98331995551 76725 10240 10240 785664000 8045199360000
137	18028541 4706 2594539 236544102 39.365984255003 3045.026694589793 123 4791 2913875 95138492 1.2886494266921e+14
138	18033247 4087 13522 237816756 0.816094420685 3060.293162571038 124 1 1 124 124
139	18037334 5700 2594539 236544102 39.365984255003 3045.026694589793 123 0.623359988556 63.442505882814 1301.5146638188 34681.65850875
140	18043034 8162 11684 237812292 0.63886315951 3060.115619998666 247 0 1 124 124
149	18051196 4259 4183310 236886276 65.469432196126 3050.145758571547 111 497 4696114 98072148 1.7441613397304e+14
150	18055455 3682 3850958 236649878 63.205992753125 3048.505627004983 111 1 1 111 111
151	18059137 5161 4183310 236886276 65.469432196126 3050.145758571547 111 0.177942140847 52.146510816769 1354.4218384174 40180.041396521
152	18064298 7361 3829733 236886276 63.024421669902 3050.145758571547 222 0 1 111 111
161	18071659 4545 1037338 238120092 12.727673077132 3064.358909064878 119 9817 4541318 93893439 1.3811305305644e+14
162	18076204 3934 911012 237414757 11.496751193853 3055.141083283958 119 1 1 119 119
163	18080138 5508 1037338 238120092 12.727673077132 3064.358909064878 119 0.535478504761 76.58593242569 1363.8579045093 38905.291039017
164	18085646 7864 892588 238120092 11.31951096729 3064.358909064878 238 0 1 119 119
173	18093510 4083 1112539 236554632 13.144083783506 3045.744733229385 107 8072 4228186 87944289 1.6045477074257e+14
174	18097593 3551 911709 236648704 11.515771728351 3048.501759637203 108 1 1 108 108
175	18101144 4951 1112539 236554632 13.144083783506 3045.744733229385 107 0.606702435417 75.147779585175 1293.5083080202 43776.635662219
176	18106095 7094 893139 236623192 11.337997323347 3048.317538184884 215 0 1 108 108
185	18113189 4353 1251320 238098168 16.516746395149 3063.736298595489 114 5108 3622156 87838938 1.249576308667e+14
186	18117542 3749 1138018 238018790 14.790764842091 3062.251276927131 114 1 1 114 114
187	18121291 5275 1251320 238098168 16.516746395149 3063.736298595489 114 0.535416805592 54.541961077393 1267.0437144898 34764.122304509
188	18126566 7526 1134983 238098168 14.61354268122 3063.736298595489 228 0 1 114 114
197	18134092 4334 3080447 235379868 50.239231736671 3031.360862780838 113 30533 3490069 90491420 1.3138618001824e+14
198	18138426 3780 1496012 237524657 21.275717741396 3055.721789796437 114 1 1 114 114
199	18142206 5234 3080447 235379868 50.239231736671 3031.360862780838 113 0.895587778879 72.207298412526 1208.9590369617 32066.10966887
200	18147440 7513 1483315 237482837 21.098249940955 3055.502239103549 227 0 1 114 114
209	18154953 3514 1082599 235988184 12.918487792834 3038.248358828481 92 22413 5710207 83518126 1.5455140856893e+14
210	18158467 3036 859577 235343493 11.125961409585 3030.823113085423 92 1 1 92 92
211	18161503 4254 1082599 235988184 12.918487792834 3038.248358828481 92 0.930654419437 80.85030453271 1299.2271715583 48610.929781239
212	18165757 6068 830023 235988184 10.948300701627 3038.248358828481 184 0 1 92 92
221	18171825 4166 532627 235302037 7.440811981072 3028.328191290453 109 7768 3499973 91410999 1.3846215389169e+14
222	18175991 3624 429191 235927190 5.761012743694 3037.047870605466 110 1 1 110 110
223	18179615 5046 532627 235302037 7.440811981072 3028.328191290453 109 0.539022177155 67.020754960976 1331.6445944892 39698.832862644
224	18184661 7221 147678 235910121 2.537202659412 3036.872233452477 219 0 1 110 110
233	18191882 4164 4757482 235058716 71.057545273848 3025.984858993994 109 1633 5117156 94837656 1.8826130613499e+14
234	18196046 3607 4631898 233956947 69.745640255113 3013.534369067837 109 1 1 109 109
235	18199653 5042 4757482 235058716 71.057545273848 3025.984858993994 109 0.359224426667 112.31871439332 1366.741604934 55081.614151976
236	18204695 7206 4553437 235058716 69.417789450436 3025.984858993994 218 0 1 109 109
245	18211901 4475 885446 238242817 11.274084884186 3067.243287176959 118 4876 4225913 91818172 1.4371947256666e+14
246	18216376 3873 687149 237624810 9.916720359654 3056.789619250312 118 1 1 118 118
247	18220249 5432 885446 238242817 11.274084884186 3067.243287176959 118 0.535550751136 73.726240930148 1285.8720710767 41954.820647322
248	18225681 7747 619314 238242817 9.609065206908 3067.243287176959 236 0 1 118 118
257	18233428 2735364 18833 238285987 1.041691459546 3068.984723304532 75714 1400 1400 105999600 148399440000
258	20968792 2773919 262 238286085 0.035050706071 3068.995050706071 76725 1400 1400 107415000 150381000000
259	23742711 3486641 18833 238285987 1.041691459546 3068.984723304532 75714 0.016320183401 1.044259700418 1893.7859068058 114.5050394413
273	27229352 6644 553065 237220492 8.76747750746 3053.303852555628 201 1 1 201 201
274	27235996 7897 23709 237232059 1.177222234811 3053.662735942271 202 1048576 1048576 211812352 2.2210134881075e+14
275	27243893 9395 553065 237220492 8.76747750746 3053.303852555628 201 4.387271967035 47.692329614365 2967.5080321173 54659.084585597
276	27253288 13287 56 237228544 0 3053.48636470746 403 0 1 202 202
64	27266575 2155744 238286708 423015099 3069.040400085506 5399.960431418839 58274 10240 10240 596725760 6110471782400
65	29422319 2679818 238286708 423015099 3069.040400085506 5399.960431418839 58274 0.017080129996 0.082319875591 1011.6093530996 17.810768443681
82	32102137 2095765 238287192 423017629 3069.051396315978 5399.971396328918 58274 1400 1400 81583600 114217040000
83	34197902 2097864 238286975 423016945 3069.048376254625 5399.968376254625 58274 1400 1400 81583600 114217040000
84	36295766 2676729 238287192 423017629 3069.051396315978 5399.971396328918 58274 0.016345609907 0.122041347047 1005.6801180548 17.979378582788
101	38972495 29592 238427279 422852291 3072.325002596946 5398.126574266009 874 1 1 874 874
102	39002087 34104 238427279 422852291 3072.325002596946 5398.126574266009 874 52 8109805 718568758 1.1719154683065e+15
103	39036191 40830 238427279 422852291 3072.325002596946 5398.126574266009 874 0.07781828485 0.123623492084 68.969328055656 5.4505124583406
104	39077021 6229 239868302 422525145 3089.690308153585 5391.464779253214 156 1048576 1048576 163577856 1.7152381393306e+14
105	39083250 5293 239868302 422525145 3089.690308153585 5391.464779253214 156 1 1 156 156
106	39088543 7415 239868302 422525145 3089.690308153585 5391.464779253214 156 3.146058312661 51.395320873283 2263.5870325629 42576.910712724
119	39095958 2156175 238286341 423020379 3069.02331995551 5399.98331995551 58275 10240 10240 596736000 6110576640000
137	41252133 3553 238368210 422282397 3071.127371775002 5386.173096712852 91 14967 4777358 76007057 1.3330130429775e+14
138	41255686 3050 242831091 422147454 3123.998025557403 5384.462190294838 90 1 1 90 90
139	41258736 4287 238368210 422282397 3071.127371775002 5386.173096712852 91 0.712280126902 90.845786038752 956.0232304441 35316.883361221
140	41263023 6139 238368210 422282397 3071.127371775002 5386.173096712852 181 0 1 90 90
149	41269162 3006 239362114 422148691 3082.626129041737 5384.489436821598 77 22698 3244283 67735717 1.1964772626226e+14
150	41272168 2611 239215436 420928030 3080.899082883425 5366.945152345344 77 1 1 77 77
151	41274779 3627 239362114 422148691 3082.626129041737 5384.489436821598 77 0.902517685231 49.498532378675 933.24500495166 28539.649508146
152	41278406 5220 239211118 422148691 3080.723445711568 5384.489436821598 154 0 1 77 77
161	41283626 3202 242499109 422497656 3120.32485081444 5390.621797118492 82 8910 2810596 66388371 92365610860809
162	41286828 2784 239221286 422429236 3081.145152345235 5389.143159160928 82 1 1 82 82
163	41289612 3869 242499109 422497656 3120.32485081444 5390.621797118492 82 0.535946504761 67.089021536972 982.50145039752 28152.006785228
164	41293481 5552 239216601 422497656 3080.969167042003 5390.621797118492 164 0 1 82 82
173	41299033 3508 239218358 421186353 3081.01139041459 5371.464057443718 90 52 4494279 71380367 1.1114598695038e+14
174	41302541 3008 241368074 421136805 3107.1585542448 5370.155945935311 89 1 1 89 89
175	41305549 4243 239218358 421186353 3081.01139041459 5371.464057443718 90 0.210821093884 43.421356739589 973.39571956107 23856.87064471
176	41309792 6061 239218358 421186353 3081.01139041459 5371.464057443718 179 0 1 89 89
185	41315853 3365 239806033 422805192 3087.307514590795 5395.413483171566 86 20933 8109805 83819157 1.9420706197583e+14
186	41319218 2906 239399928 422710125 3082.80493783926 5393.96596140326 86 1 1 86 86
187	41322124 4054 239806033 422805192 3087.307514590795 5395.413483171566 86 0.716512269709 112.26426349761 1157.3038689279 44556.476182248
188	41326178 5834 239345114 422805192 3082.554054409236 5395.413483171566 172 0 1 86 86
197	41332012 3551 238568727 417752346 3073.651880285107 5327.267162467643 91 6348 3513207 68307625 95046671341351
198	41335563 3085 238725787 421265561 3074.445992747638 5375.409096767208 91 1 1 91 91
199	41338648 4292 238568727 417752346 3073.651880285107 5327.267162467643 91 0.778978811379 46.489927330886 931.0093021899 23152.163113391
200	41342940 6168 238568727 421262377 3073.651880285107 5375.232281722157 182 0 1 91 91
209	41349108 3934 239711688 418472085 3085.763567770856 5336.345625289087 101 4886 2747340 66125703 79447981391725
210	41353042 3459 238994741 421773626 3078.227511299652 5379.598130871182 102 1 1 102 102
211	41356501 4759 239711688 418472085 3085.763567770856 5336.345625289087 101 0.531558395722 42.882147815245 839.67110845977 17905.656053953
212	41361260 6873 238983234 421697164 3078.048360101427 5379.285920303653 203 0 1 102 102
221	41368133 3283 239014279 422392518 3078.568381793298 5387.044006138883 84 6517 4128920 70571013 1.1661792088174e+14
222	41371416 2847 240013535 422849959 3091.953429505359 5398.048746953865 84 1 1 84 84
223	41374263 3960 239014279 422392518 3078.568381793298 5387.044006138883 84 0.537174656652 86.15151270327 975.35316926945 31150.384930565
224	41378223 5691 239014279 422846790 3078.568381793298 5397.873109800876 168 0 1 84 84
233	41383914 3362 239751943 420559633 3086.167026127453 5361.368465650052 86 16224 2901681 66269604 92668943449140
234	41387276 2956 238424170 421498262 3072.247175285717 5377.673919837106 87 1 1 87 87
235	41390232 4054 239751943 420559633 3086.167026127453 5361.368465650052 86 0.714882347829 65.53972299276 930.27654525908 26132.538714497
236	41394286 5862 238413569 421471551 3072.065671567995 5377.496883322863 173 0 1 87 87
245	41400148 3373 239847156 422415427 3088.358366684956 5388.30669460524 86 7869 3718327 82176193 1.402054944489e+14
246	41403521 2910 238438284 419903189 3072.495275476802 5353.27424934276 86 1 1 86 86
247	41406431 4066 239847156 422415427 3088.358366684956 5388.30669460524 86 0.534383912595 51.374089251035 1153.9180559911 35068.951226676
248	41410497 5828 238427120 422415427 3072.319638290263 5388.30669460524 172 0 1 86 86
257	41416325 2128088 238286439 423020155 3069.024723304532 5399.982494797415 57555 1400 1400 80577000 112807800000
258	43544413 2156175 238286537 423023146 3069.035050706071 5399.995050706071 58275 1400 1400 81585000 114219000000
259	45700588 2698946 238286439 423020155 3069.024723304532 5399.982494797415 57555 0.016320688906 0.194870052775 1433.5020446258 74.110454010515
273	48399534 5271 239870029 422534713 3089.789215741139 5391.566393466149 156 1 1 156 156
274	48404805 6225 239876123 422546529 3090.142789942271 5391.926024088411 156 1048576 1048576 163577856 1.7152381393306e+14
275	48411030 7400 239870029 422534713 3089.789215741139 5391.566393466149 156 3.244974900215 51.494237460837 2280.1539176378 43065.386645401
276	48418430 10540 239870029 422543160 3089.789215741139 5391.744596453223 312 0 1 156 156
