file 48217023 1471539138                                        
version 2
run _10on-1-20160818-17:48:05-28534
attr configname _10on
attr datetime 20160818-17:48:05
attr experiment _10on
attr inifile omnetpp.ini
attr iterationvars ""
attr iterationvars2 $repetition=1
attr measurement ""
attr network University
attr processid 28534
attr repetition 1
attr replication #1
attr resultdir results
attr runnumber 1
attr seedset 1

vector 276  University.whostFTP.tcpApp[0]  numActiveSessions:vector  ETV
attr interpolationmode  sample-hold
attr source  sum(connect)
attr title  "number of active sessions, vector"
vector 258  University.whostVideoConf.udpApp[0]  sentPk:vector(packetBytes)  ETV
attr interpolationmode  none
attr source  sentPk
attr title  "packets sent, vector(packetBytes)"
vector 83  University.profLaptop.udpApp[0]  sentPk:vector(packetBytes)  ETV
attr interpolationmode  none
attr source  sentPk
attr title  "packets sent, vector(packetBytes)"
vector 118  University.CCTV.udpApp[0]  reqStreamBytes:vector  ETV
attr interpolationmode  none
attr title  "requested stream bytes, vector"
vector 119  University.CCTV.udpApp[0]  sentPk:vector(packetBytes)  ETV
attr interpolationmode  none
attr source  sentPk
attr title  "packets sent, vector(packetBytes)"
vector 64  University.ccTVMonitoringHost.udpApp[0]  rcvdPk:vector(packetBytes)  ETV
attr interpolationmode  none
attr source  rcvdPk
attr title  "packets received, vector(packetBytes)"
vector 65  University.ccTVMonitoringHost.udpApp[0]  endToEndDelay:vector  ETV
attr interpolationmode  none
attr source  messageAge(rcvdPk)
attr title  "end-to-end delay, vector"
attr unit  s
vector 257  University.whostVideoConf.udpApp[0]  rcvdPk:vector(packetBytes)  ETV
attr interpolationmode  none
attr source  rcvdPk
attr title  "packets received, vector(packetBytes)"
vector 259  University.whostVideoConf.udpApp[0]  rcvdPkLifetime:vector  ETV
attr interpolationmode  none
attr source  messageAge(rcvdPk)
attr title  "received packet lifetime, vector"
attr unit  s
vector 82  University.profLaptop.udpApp[0]  rcvdPk:vector(packetBytes)  ETV
attr interpolationmode  none
attr source  rcvdPk
attr title  "packets received, vector(packetBytes)"
vector 84  University.profLaptop.udpApp[0]  rcvdPkLifetime:vector  ETV
attr interpolationmode  none
attr source  messageAge(rcvdPk)
attr title  "received packet lifetime, vector"
attr unit  s
vector 274  University.whostFTP.tcpApp[0]  sentPk:vector(packetBytes)  ETV
attr interpolationmode  none
attr source  sentPk
attr title  "packets sent, vector(packetBytes)"
vector 164  University.whttpStudents[2].tcpApp[0]  numActiveSessions:vector  ETV
attr interpolationmode  sample-hold
attr source  sum(connect)
attr title  "number of active sessions, vector"
vector 162  University.whttpStudents[2].tcpApp[0]  sentPk:vector(packetBytes)  ETV
attr interpolationmode  none
attr source  sentPk
attr title  "packets sent, vector(packetBytes)"
vector 101  University.Server.tcpApp[0]  rcvdPk:vector(packetBytes)  ETV
attr interpolationmode  none
attr source  rcvdPk
attr title  "packets received, vector(packetBytes)"
vector 103  University.Server.tcpApp[0]  endToEndDelay:vector  ETV
attr interpolationmode  none
attr source  messageAge(rcvdPk)
attr title  "end-to-end delay, vector"
attr unit  s
vector 102  University.Server.tcpApp[0]  sentPk:vector(packetBytes)  ETV
attr interpolationmode  none
attr source  sentPk
attr title  "packets sent, vector(packetBytes)"
vector 212  University.whttpStudents[6].tcpApp[0]  numActiveSessions:vector  ETV
attr interpolationmode  sample-hold
attr source  sum(connect)
attr title  "number of active sessions, vector"
vector 210  University.whttpStudents[6].tcpApp[0]  sentPk:vector(packetBytes)  ETV
attr interpolationmode  none
attr source  sentPk
attr title  "packets sent, vector(packetBytes)"
vector 224  University.whttpStudents[7].tcpApp[0]  numActiveSessions:vector  ETV
attr interpolationmode  sample-hold
attr source  sum(connect)
attr title  "number of active sessions, vector"
vector 152  University.whttpStudents[1].tcpApp[0]  numActiveSessions:vector  ETV
attr interpolationmode  sample-hold
attr source  sum(connect)
attr title  "number of active sessions, vector"
vector 222  University.whttpStudents[7].tcpApp[0]  sentPk:vector(packetBytes)  ETV
attr interpolationmode  none
attr source  sentPk
attr title  "packets sent, vector(packetBytes)"
vector 150  University.whttpStudents[1].tcpApp[0]  sentPk:vector(packetBytes)  ETV
attr interpolationmode  none
attr source  sentPk
attr title  "packets sent, vector(packetBytes)"
vector 161  University.whttpStudents[2].tcpApp[0]  rcvdPk:vector(packetBytes)  ETV
attr interpolationmode  none
attr source  rcvdPk
attr title  "packets received, vector(packetBytes)"
vector 163  University.whttpStudents[2].tcpApp[0]  endToEndDelay:vector  ETV
attr interpolationmode  none
attr source  messageAge(rcvdPk)
attr title  "end-to-end delay, vector"
attr unit  s
vector 140  University.whttpStudents[0].tcpApp[0]  numActiveSessions:vector  ETV
attr interpolationmode  sample-hold
attr source  sum(connect)
attr title  "number of active sessions, vector"
vector 200  University.whttpStudents[5].tcpApp[0]  numActiveSessions:vector  ETV
attr interpolationmode  sample-hold
attr source  sum(connect)
attr title  "number of active sessions, vector"
vector 138  University.whttpStudents[0].tcpApp[0]  sentPk:vector(packetBytes)  ETV
attr interpolationmode  none
attr source  sentPk
attr title  "packets sent, vector(packetBytes)"
vector 198  University.whttpStudents[5].tcpApp[0]  sentPk:vector(packetBytes)  ETV
attr interpolationmode  none
attr source  sentPk
attr title  "packets sent, vector(packetBytes)"
vector 248  University.whttpStudents[9].tcpApp[0]  numActiveSessions:vector  ETV
attr interpolationmode  sample-hold
attr source  sum(connect)
attr title  "number of active sessions, vector"
vector 246  University.whttpStudents[9].tcpApp[0]  sentPk:vector(packetBytes)  ETV
attr interpolationmode  none
attr source  sentPk
attr title  "packets sent, vector(packetBytes)"
vector 188  University.whttpStudents[4].tcpApp[0]  numActiveSessions:vector  ETV
attr interpolationmode  sample-hold
attr source  sum(connect)
attr title  "number of active sessions, vector"
vector 186  University.whttpStudents[4].tcpApp[0]  sentPk:vector(packetBytes)  ETV
attr interpolationmode  none
attr source  sentPk
attr title  "packets sent, vector(packetBytes)"
vector 197  University.whttpStudents[5].tcpApp[0]  rcvdPk:vector(packetBytes)  ETV
attr interpolationmode  none
attr source  rcvdPk
attr title  "packets received, vector(packetBytes)"
vector 199  University.whttpStudents[5].tcpApp[0]  endToEndDelay:vector  ETV
attr interpolationmode  none
attr source  messageAge(rcvdPk)
attr title  "end-to-end delay, vector"
attr unit  s
vector 185  University.whttpStudents[4].tcpApp[0]  rcvdPk:vector(packetBytes)  ETV
attr interpolationmode  none
attr source  rcvdPk
attr title  "packets received, vector(packetBytes)"
vector 187  University.whttpStudents[4].tcpApp[0]  endToEndDelay:vector  ETV
attr interpolationmode  none
attr source  messageAge(rcvdPk)
attr title  "end-to-end delay, vector"
attr unit  s
vector 137  University.whttpStudents[0].tcpApp[0]  rcvdPk:vector(packetBytes)  ETV
attr interpolationmode  none
attr source  rcvdPk
attr title  "packets received, vector(packetBytes)"
vector 139  University.whttpStudents[0].tcpApp[0]  endToEndDelay:vector  ETV
attr interpolationmode  none
attr source  messageAge(rcvdPk)
attr title  "end-to-end delay, vector"
attr unit  s
vector 176  University.whttpStudents[3].tcpApp[0]  numActiveSessions:vector  ETV
attr interpolationmode  sample-hold
attr source  sum(connect)
attr title  "number of active sessions, vector"
vector 236  University.whttpStudents[8].tcpApp[0]  numActiveSessions:vector  ETV
attr interpolationmode  sample-hold
attr source  sum(connect)
attr title  "number of active sessions, vector"
vector 174  University.whttpStudents[3].tcpApp[0]  sentPk:vector(packetBytes)  ETV
attr interpolationmode  none
attr source  sentPk
attr title  "packets sent, vector(packetBytes)"
vector 234  University.whttpStudents[8].tcpApp[0]  sentPk:vector(packetBytes)  ETV
attr interpolationmode  none
attr source  sentPk
attr title  "packets sent, vector(packetBytes)"
vector 149  University.whttpStudents[1].tcpApp[0]  rcvdPk:vector(packetBytes)  ETV
attr interpolationmode  none
attr source  rcvdPk
attr title  "packets received, vector(packetBytes)"
vector 151  University.whttpStudents[1].tcpApp[0]  endToEndDelay:vector  ETV
attr interpolationmode  none
attr source  messageAge(rcvdPk)
attr title  "end-to-end delay, vector"
attr unit  s
vector 173  University.whttpStudents[3].tcpApp[0]  rcvdPk:vector(packetBytes)  ETV
attr interpolationmode  none
attr source  rcvdPk
attr title  "packets received, vector(packetBytes)"
vector 175  University.whttpStudents[3].tcpApp[0]  endToEndDelay:vector  ETV
attr interpolationmode  none
attr source  messageAge(rcvdPk)
attr title  "end-to-end delay, vector"
attr unit  s
vector 233  University.whttpStudents[8].tcpApp[0]  rcvdPk:vector(packetBytes)  ETV
attr interpolationmode  none
attr source  rcvdPk
attr title  "packets received, vector(packetBytes)"
vector 235  University.whttpStudents[8].tcpApp[0]  endToEndDelay:vector  ETV
attr interpolationmode  none
attr source  messageAge(rcvdPk)
attr title  "end-to-end delay, vector"
attr unit  s
vector 104  University.Server.tcpApp[1]  rcvdPk:vector(packetBytes)  ETV
attr interpolationmode  none
attr source  rcvdPk
attr title  "packets received, vector(packetBytes)"
vector 106  University.Server.tcpApp[1]  endToEndDelay:vector  ETV
attr interpolationmode  none
attr source  messageAge(rcvdPk)
attr title  "end-to-end delay, vector"
attr unit  s
vector 105  University.Server.tcpApp[1]  sentPk:vector(packetBytes)  ETV
attr interpolationmode  none
attr source  sentPk
attr title  "packets sent, vector(packetBytes)"
vector 273  University.whostFTP.tcpApp[0]  rcvdPk:vector(packetBytes)  ETV
attr interpolationmode  none
attr source  rcvdPk
attr title  "packets received, vector(packetBytes)"
vector 275  University.whostFTP.tcpApp[0]  endToEndDelay:vector  ETV
attr interpolationmode  none
attr source  messageAge(rcvdPk)
attr title  "end-to-end delay, vector"
attr unit  s
vector 245  University.whttpStudents[9].tcpApp[0]  rcvdPk:vector(packetBytes)  ETV
attr interpolationmode  none
attr source  rcvdPk
attr title  "packets received, vector(packetBytes)"
vector 247  University.whttpStudents[9].tcpApp[0]  endToEndDelay:vector  ETV
attr interpolationmode  none
attr source  messageAge(rcvdPk)
attr title  "end-to-end delay, vector"
attr unit  s
vector 221  University.whttpStudents[7].tcpApp[0]  rcvdPk:vector(packetBytes)  ETV
attr interpolationmode  none
attr source  rcvdPk
attr title  "packets received, vector(packetBytes)"
vector 223  University.whttpStudents[7].tcpApp[0]  endToEndDelay:vector  ETV
attr interpolationmode  none
attr source  messageAge(rcvdPk)
attr title  "end-to-end delay, vector"
attr unit  s
vector 209  University.whttpStudents[6].tcpApp[0]  rcvdPk:vector(packetBytes)  ETV
attr interpolationmode  none
attr source  rcvdPk
attr title  "packets received, vector(packetBytes)"
vector 211  University.whttpStudents[6].tcpApp[0]  endToEndDelay:vector  ETV
attr interpolationmode  none
attr source  messageAge(rcvdPk)
attr title  "end-to-end delay, vector"
attr unit  s
64	11356 2647424 314 235176352 0.0559338729 3063.5359338729 76588 10240 10240 784261120 8030833868800
65	2658780 3336144 314 235176352 0.0559338729 3063.5359338729 76588 0.017080129996 0.078099763919 1327.517249311 23.266394583492
82	5994924 2690772 20329 235176361 1.038414383102 3063.541961080202 76588 1400 1400 107223200 150112480000
83	8685696 2693204 83 235176362 0.037302294448 3063.557302294448 76589 1400 1400 107224600 150114440000
84	11378900 3453395 20329 235176361 1.038414383102 3063.541961080202 76588 0.016345602724 1.032798905624 1338.433898081 33.769932248591
101	14832295 36255 160364 234847264 3.363401590884 3059.533427565065 1098 1 1 1098 1098
102	14868550 41953 160364 234847264 3.363401590884 3059.533427565065 1098 1321 5617920 940711475 1.6175963971714e+15
103	14910503 50348 160364 234847264 3.363401590884 3059.533427565065 1098 0.026997862186 0.066885559138 30.920615955196 0.87943450813805
104	14960851 7068 1909859 234038931 20.716640089741 3049.816439317512 181 1048576 1048576 189792256 1.9901160462746e+14
105	14967919 5982 1909859 234038931 20.716640089741 3049.816439317512 181 1 1 181 181
106	14973901 8471 1909859 234038931 20.716640089741 3049.816439317512 181 4.553847034423 42.403699900435 2916.9494505851 54562.14513994
118	14982372 34 117 117 0.038853742904 0.038853742904 1 1433600000 1433600000 1433600000 2.05520896e+18
119	14982406 2846384 117 235176368 0.038853742904 3063.558853742904 76589 10240 10240 784271360 8030938726400
137	17828790 4179 1087813 233624558 14.293095443712 3047.467731734979 109 16372 4208787 79760093 1.1333666836788e+14
138	17832969 3592 374841 230465539 5.676340111391 3009.489208965684 109 1 1 109 109
139	17836561 5057 1087813 233624558 14.293095443712 3047.467731734979 109 0.923556058389 56.092649090617 1032.8835985599 25742.206526993
140	17841618 7226 307788 233624558 5.400191217838 3047.467731734979 218 0 1 109 109
149	17848844 4483 1502958 234591313 18.227358945817 3056.093171530491 117 2363 3938593 101055678 1.7363439933849e+14
150	17853327 3903 225273 234846508 4.258461937644 3059.506366617907 118 1 1 118 118
151	17857230 5425 1502958 234591313 18.227358945817 3056.093171530491 117 0.438866568994 80.111950280215 1462.8924483719 51381.270202222
152	17862655 7783 211264 234794871 4.039559365144 3059.284403733644 235 0 1 118 118
161	17870438 4547 246079 233913115 4.662442704362 3049.140464251389 119 5918 4951171 95862224 1.6960796383561e+14
162	17874985 3938 151816 231760288 3.328236863967 3028.921557764071 119 1 1 119 119
163	17878923 5508 246079 233913115 4.662442704362 3049.140464251389 119 0.646223522186 64.821202363741 1277.3094513575 35892.967299232
164	17884431 7876 124742 233913115 3.091719509458 3049.140464251389 238 0 1 119 119
173	17892307 3992 1513880 233457819 18.272526322095 3046.617406560575 104 11220 5617920 95435503 1.8046315538407e+14
174	17896299 3432 1272842 229281123 16.83254407256 2990.116603921052 104 1 1 104 104
175	17899731 4829 1513880 233457819 18.272526322095 3046.617406560575 104 0.860978179038 108.86475811011 1490.7538068516 54705.967738639
176	17904560 6886 1255285 233457819 16.618400187684 3046.617406560575 208 0 1 104 104
185	17911446 3924 982525 231223988 12.975573784857 3020.777577225959 103 4082 4633080 84523883 1.4042972623818e+14
186	17915370 3385 926472 231129214 11.858461926717 3018.919282555034 103 1 1 103 103
187	17918755 4758 982525 231223988 12.975573784857 3020.777577225959 103 0.430012106798 99.811835872098 1346.0753069708 50753.505717905
188	17923513 6777 868376 231223988 11.609396554135 3020.777577225959 206 0 1 103 103
197	17930290 4662 967827 234168759 12.914231828646 3050.86489682695 122 4108 4941719 100540868 1.8086646668617e+14
198	17934952 4025 453446 232298616 6.001866603007 3034.679881370688 122 1 1 122 122
199	17938977 5646 967827 234168759 12.914231828646 3050.86489682695 122 0.430043057694 83.529520213438 1543.7158069264 52927.234238103
200	17944623 8057 365044 234168759 5.637287889868 3050.86489682695 244 0 1 122 122
209	17952680 4060 3105840 229306084 39.534489375989 2990.586416997432 106 11003 3593644 92393767 1.5023633919908e+14
210	17956740 3487 179211 229264707 3.645027982708 2989.49846190932 106 1 1 106 106
211	17960227 4918 3105840 229306084 39.534489375989 2990.586416997432 106 0.858609378722 50.249957418527 1386.32544066 41484.386186155
212	17965145 7015 162830 229306084 3.430866098896 2990.586416997432 212 0 1 106 106
221	17972160 3909 2755850 234480554 34.264876696911 3054.500889081844 102 8369 5294318 113252547 2.5134612143485e+14
222	17976069 3396 213422 234603796 4.126426685057 3056.945105721592 103 1 1 103 103
223	17979465 4734 2755850 234480554 34.264876696911 3054.500889081844 102 0.645319970248 90.666721570545 1628.8727556893 60808.175952053
224	17984199 6761 196186 234600723 3.912237749081 3056.732501836626 205 0 1 103 103
233	17990960 4107 1726930 230393392 19.709990591246 3005.251513494364 107 20560 4055107 83655338 1.1928660981913e+14
234	17995067 3585 1283018 233497396 16.879137424212 3046.869922993412 108 1 1 108 108
235	17998652 4969 1726930 230393392 19.709990591246 3005.251513494364 107 0.865845413758 82.310928624706 1238.1031877014 35997.970599188
236	18003621 7134 1262930 233463261 16.651204778253 3046.657319096232 215 0 1 108 108
245	18010755 4012 2639728 229252762 31.768528745576 2988.943861649188 105 1321 3314625 87421149 1.2485818744298e+14
246	18014767 3501 680488 233263402 9.379984111727 3045.24095598495 106 1 1 106 106
247	18018268 4856 2639728 229252762 31.768528745576 2988.943861649188 105 0.21459089327 52.61534716263 1395.3757185743 44182.790114391
248	18023124 6962 675387 233240241 9.165348165123 3045.028299572283 211 0 1 106 106
257	18030086 2759059 14596 235176622 1.007058489594 3063.573649337172 76354 1400 1400 106895600 149653840000
258	20789145 2769826 61 235176445 0.005615477478 3063.565615477478 76590 1400 1400 107226000 150116400000
259	23558971 3520446 14596 235176622 1.007058489594 3063.573649337172 76354 0.016320125083 1.076974059259 1981.9200404229 129.62563286905
273	27079417 5991 1955811 234065416 20.971484452748 3050.003161073324 181 1 1 181 181
274	27085408 7104 22816 234118379 1.218461932406 3050.434995572342 182 1048576 1048576 190840832 2.0011111625523e+14
275	27092512 8477 1955811 234065416 20.971484452748 3050.003161073324 181 4.740532790235 42.590412656247 2954.9317235865 55781.052092832
276	27100989 11990 56 234092356 0 3050.221051406496 363 0 1 182 182
64	27112979 2067375 235176730 408835750 3063.5759338729 5399.9759338729 58411 10240 10240 598128640 6124837273600
65	29180354 2592649 235176730 408835750 3063.5759338729 5399.9759338729 58411 0.017080129996 0.07109900918 1012.4920676476 17.75114056727
82	31773003 2100845 235176739 408835759 3063.581961080202 5399.981961080202 58409 1400 1400 81772600 114481640000
83	33873848 2102796 235176796 408835816 3063.597302294448 5399.997302294448 58411 1400 1400 81775400 114485560000
84	35976644 2682529 235176739 408835759 3063.581961080202 5399.981961080202 58409 0.016345602724 0.123850430625 1008.9983961698 18.111888747757
101	38659173 27530 235492066 408833445 3069.88671863803 5399.876372279227 813 1 1 813 813
102	38686703 31771 235492066 408833445 3069.88671863803 5399.876372279227 813 899 4923573 693541417 1.0922480149025e+15
103	38718474 37948 235492066 408833445 3069.88671863803 5399.876372279227 813 0.026997862186 0.060820999722 22.90875145834 0.65347138675916
104	38756422 5189 235206164 407386224 3065.409624521249 5384.477946554358 130 1048576 1048576 136314880 1.4293651161088e+14
105	38761611 4409 235206164 407386224 3065.409624521249 5384.477946554358 130 1 1 130 130
106	38766020 6197 235206164 407386224 3065.409624521249 5384.477946554358 130 5.94372930084 50.82850401903 2227.7655598078 46218.69196032
119	38772217 2219618 235176802 408835822 3063.598853742904 5399.998853742904 58411 10240 10240 598128640 6124837273600
137	40991835 3749 235932542 407992253 3078.801889786075 5389.651632562378 96 899 3140447 69329774 92727845821366
138	40995584 3247 235696003 407579027 3076.663642122805 5385.77753193842 96 1 1 96 96
139	40998831 4519 235932542 407992253 3078.801889786075 5389.651632562378 96 0.218978481788 66.277130552844 923.87714876171 24728.468937244
140	41003350 6503 235670161 407992253 3076.425768971556 5389.651632562378 192 0 1 96 96
149	41009853 3135 235223162 406411744 3066.41987228431 5369.807474520794 80 35552 4194707 77471329 1.228715661506e+14
150	41012988 2712 235653504 406808297 3076.190550724409 5375.938461937644 80 1 1 80 80
151	41015700 3774 235223162 406411744 3066.41987228431 5369.807474520794 80 1.244287728605 49.741911043757 1044.342021213 27317.62295931
152	41019474 5416 235223162 406802559 3066.41987228431 5375.720524497498 160 0 1 80 80
161	41024890 2704 238207816 407354539 3105.837105209582 5384.120309885187 69 9616 3571612 70336807 1.2732239895514e+14
162	41027594 2371 238085010 407567396 3104.049924419693 5385.483291185403 70 1 1 70 70
163	41029965 3265 238207816 407354539 3105.837105209582 5384.120309885187 69 0.651998285214 70.034974235586 1144.2327377787 39311.530444303
164	41033230 4713 238009445 407490066 3103.741165824174 5385.154477852286 139 0 1 70 70
173	41037943 2629 235537578 407388619 3071.401545715963 5384.562080192805 67 13026 3512976 70349137 1.2739974787197e+14
174	41040572 2269 235491476 407320975 3069.859630775046 5383.266891926263 67 1 1 67 67
175	41042841 3161 235537578 407388619 3071.401545715963 5384.562080192805 67 1.080374223699 95.975593767047 1207.8792943944 52352.279394567
176	41046002 4546 235488044 407388619 3069.639689563568 5384.562080192805 134 0 1 67 67
185	41050548 3784 235758912 408781581 3076.991029808799 5398.224928512267 97 2592 2749612 67251474 80717694129660
186	41054332 3319 235626586 408832715 3074.900332252255 5399.84933836485 98 1 1 98 98
187	41057651 4565 235758912 408781581 3076.991029808799 5398.224928512267 97 0.560641080104 52.615092976862 1019.4530982317 26996.344113484
188	41062216 6611 235623121 408828705 3074.687728358577 5399.636734471172 195 0 1 98 98
197	41068827 3012 236021901 408808231 3081.949982225817 5398.532411958143 77 4831 3577774 64851647 1.0500450956583e+14
198	41071839 2608 235953010 407332137 3080.178461920579 5383.602300280584 77 1 1 77 77
199	41074447 3637 236021901 408808231 3081.949982225817 5398.532411958143 77 0.649784353013 94.911542198539 1076.6523239991 38685.850141939
200	41078084 5223 235949784 408808231 3079.961692599206 5398.532411958143 154 0 1 77 77
209	41083307 3400 236865499 404019551 3089.951745568082 5348.034167882441 87 2914 4923573 74177380 1.3774006788303e+14
210	41086707 2977 236499513 406523193 3087.987819817963 5371.952294823603 88 1 1 88 88
211	41089684 4095 236865499 404019551 3089.951745568082 5348.034167882441 87 0.432885444579 53.794573253806 994.63847835747 30073.406588446
212	41093779 5928 236431652 406519423 3087.678190156751 5371.739690964719 175 0 1 88 88
221	41099707 2744 237789940 408829747 3099.418891708114 5399.67370042066 70 6036 2827896 63748655 91355570218835
222	41102451 2338 238259280 407313623 3107.087074085097 5383.098461922361 69 1 1 69 69
223	41104789 3313 237789940 408829747 3099.418891708114 5399.67370042066 70 0.648403047506 114.87021950688 1005.932987745 34861.929812026
224	41108102 4714 237789940 408829747 3099.418891708114 5399.67370042066 139 0 1 69 69
233	41112816 3250 235320471 406866308 3067.495986108948 5377.322133376963 83 2405 3514381 73356821 1.1489617507198e+14
234	41116066 2811 235558500 407889516 3072.864950490711 5388.262535408807 83 1 1 83 83
235	41118877 3912 235320471 406866308 3067.495986108948 5377.322133376963 83 0.42854332425 58.722168534266 1219.21382422 39574.409761145
236	41122789 5627 235320471 407872684 3067.495986108948 5388.049931511627 166 0 1 83 83
245	41128416 3349 235988660 408493298 3081.599777740591 5394.774741516153 86 13577 4599254 61358851 89163286383227
246	41131765 2880 236392221 404227179 3087.399657586926 5349.319211431831 85 1 1 85 85
247	41134645 4042 235988660 408493298 3081.599777740591 5394.774741516153 86 0.863779114144 93.044783031474 914.64489528082 30868.109316028
248	41138687 5790 235988660 408493298 3081.599777740591 5394.774741516153 171 0 1 85 85
257	41144477 2153008 235177061 408835642 3063.613649337172 5399.973649337172 58232 1400 1400 81524800 114134720000
258	43297485 2161170 235176879 408835465 3063.605615477478 5399.965615477478 58410 1400 1400 81774000 114483600000
259	45458655 2733770 235177061 408835642 3063.613649337172 5399.973649337172 58232 0.016331880686 0.213453796069 1492.0909800489 84.237079385907
273	48192425 4406 235208892 407407688 3065.596301277061 5384.673299836336 130 1 1 130 130
274	48196831 5184 235216137 407525650 3066.023625046234 5385.305135544258 130 1048576 1048576 136314880 1.4293651161088e+14
275	48202015 6198 235208892 407407688 3065.596301277061 5384.673299836336 130 6.130699581086 54.014797450408 2262.0884424519 47697.399006002
276	48208213 8810 235208892 407450014 3065.596301277061 5384.960273375504 260 0 1 130 130
