file 48959437 1471540778                                        
version 2
run _10on-3-20160818-17:48:05-28536
attr configname _10on
attr datetime 20160818-17:48:05
attr experiment _10on
attr inifile omnetpp.ini
attr iterationvars ""
attr iterationvars2 $repetition=3
attr measurement ""
attr network University
attr processid 28536
attr repetition 3
attr replication #3
attr resultdir results
attr runnumber 3
attr seedset 3

vector 276  University.whostFTP.tcpApp[0]  numActiveSessions:vector  ETV
attr interpolationmode  sample-hold
attr source  sum(connect)
attr title  "number of active sessions, vector"
vector 258  University.whostVideoConf.udpApp[0]  sentPk:vector(packetBytes)  ETV
attr interpolationmode  none
attr source  sentPk
attr title  "packets sent, vector(packetBytes)"
vector 83  University.profLaptop.udpApp[0]  sentPk:vector(packetBytes)  ETV
attr interpolationmode  none
attr source  sentPk
attr title  "packets sent, vector(packetBytes)"
vector 118  University.CCTV.udpApp[0]  reqStreamBytes:vector  ETV
attr interpolationmode  none
attr title  "requested stream bytes, vector"
vector 119  University.CCTV.udpApp[0]  sentPk:vector(packetBytes)  ETV
attr interpolationmode  none
attr source  sentPk
attr title  "packets sent, vector(packetBytes)"
vector 64  University.ccTVMonitoringHost.udpApp[0]  rcvdPk:vector(packetBytes)  ETV
attr interpolationmode  none
attr source  rcvdPk
attr title  "packets received, vector(packetBytes)"
vector 65  University.ccTVMonitoringHost.udpApp[0]  endToEndDelay:vector  ETV
attr interpolationmode  none
attr source  messageAge(rcvdPk)
attr title  "end-to-end delay, vector"
attr unit  s
vector 257  University.whostVideoConf.udpApp[0]  rcvdPk:vector(packetBytes)  ETV
attr interpolationmode  none
attr source  rcvdPk
attr title  "packets received, vector(packetBytes)"
vector 259  University.whostVideoConf.udpApp[0]  rcvdPkLifetime:vector  ETV
attr interpolationmode  none
attr source  messageAge(rcvdPk)
attr title  "received packet lifetime, vector"
attr unit  s
vector 82  University.profLaptop.udpApp[0]  rcvdPk:vector(packetBytes)  ETV
attr interpolationmode  none
attr source  rcvdPk
attr title  "packets received, vector(packetBytes)"
vector 84  University.profLaptop.udpApp[0]  rcvdPkLifetime:vector  ETV
attr interpolationmode  none
attr source  messageAge(rcvdPk)
attr title  "received packet lifetime, vector"
attr unit  s
vector 274  University.whostFTP.tcpApp[0]  sentPk:vector(packetBytes)  ETV
attr interpolationmode  none
attr source  sentPk
attr title  "packets sent, vector(packetBytes)"
vector 164  University.whttpStudents[2].tcpApp[0]  numActiveSessions:vector  ETV
attr interpolationmode  sample-hold
attr source  sum(connect)
attr title  "number of active sessions, vector"
vector 162  University.whttpStudents[2].tcpApp[0]  sentPk:vector(packetBytes)  ETV
attr interpolationmode  none
attr source  sentPk
attr title  "packets sent, vector(packetBytes)"
vector 101  University.Server.tcpApp[0]  rcvdPk:vector(packetBytes)  ETV
attr interpolationmode  none
attr source  rcvdPk
attr title  "packets received, vector(packetBytes)"
vector 103  University.Server.tcpApp[0]  endToEndDelay:vector  ETV
attr interpolationmode  none
attr source  messageAge(rcvdPk)
attr title  "end-to-end delay, vector"
attr unit  s
vector 102  University.Server.tcpApp[0]  sentPk:vector(packetBytes)  ETV
attr interpolationmode  none
attr source  sentPk
attr title  "packets sent, vector(packetBytes)"
vector 200  University.whttpStudents[5].tcpApp[0]  numActiveSessions:vector  ETV
attr interpolationmode  sample-hold
attr source  sum(connect)
attr title  "number of active sessions, vector"
vector 198  University.whttpStudents[5].tcpApp[0]  sentPk:vector(packetBytes)  ETV
attr interpolationmode  none
attr source  sentPk
attr title  "packets sent, vector(packetBytes)"
vector 197  University.whttpStudents[5].tcpApp[0]  rcvdPk:vector(packetBytes)  ETV
attr interpolationmode  none
attr source  rcvdPk
attr title  "packets received, vector(packetBytes)"
vector 199  University.whttpStudents[5].tcpApp[0]  endToEndDelay:vector  ETV
attr interpolationmode  none
attr source  messageAge(rcvdPk)
attr title  "end-to-end delay, vector"
attr unit  s
vector 176  University.whttpStudents[3].tcpApp[0]  numActiveSessions:vector  ETV
attr interpolationmode  sample-hold
attr source  sum(connect)
attr title  "number of active sessions, vector"
vector 174  University.whttpStudents[3].tcpApp[0]  sentPk:vector(packetBytes)  ETV
attr interpolationmode  none
attr source  sentPk
attr title  "packets sent, vector(packetBytes)"
vector 224  University.whttpStudents[7].tcpApp[0]  numActiveSessions:vector  ETV
attr interpolationmode  sample-hold
attr source  sum(connect)
attr title  "number of active sessions, vector"
vector 222  University.whttpStudents[7].tcpApp[0]  sentPk:vector(packetBytes)  ETV
attr interpolationmode  none
attr source  sentPk
attr title  "packets sent, vector(packetBytes)"
vector 221  University.whttpStudents[7].tcpApp[0]  rcvdPk:vector(packetBytes)  ETV
attr interpolationmode  none
attr source  rcvdPk
attr title  "packets received, vector(packetBytes)"
vector 223  University.whttpStudents[7].tcpApp[0]  endToEndDelay:vector  ETV
attr interpolationmode  none
attr source  messageAge(rcvdPk)
attr title  "end-to-end delay, vector"
attr unit  s
vector 104  University.Server.tcpApp[1]  rcvdPk:vector(packetBytes)  ETV
attr interpolationmode  none
attr source  rcvdPk
attr title  "packets received, vector(packetBytes)"
vector 106  University.Server.tcpApp[1]  endToEndDelay:vector  ETV
attr interpolationmode  none
attr source  messageAge(rcvdPk)
attr title  "end-to-end delay, vector"
attr unit  s
vector 105  University.Server.tcpApp[1]  sentPk:vector(packetBytes)  ETV
attr interpolationmode  none
attr source  sentPk
attr title  "packets sent, vector(packetBytes)"
vector 273  University.whostFTP.tcpApp[0]  rcvdPk:vector(packetBytes)  ETV
attr interpolationmode  none
attr source  rcvdPk
attr title  "packets received, vector(packetBytes)"
vector 275  University.whostFTP.tcpApp[0]  endToEndDelay:vector  ETV
attr interpolationmode  none
attr source  messageAge(rcvdPk)
attr title  "end-to-end delay, vector"
attr unit  s
vector 152  University.whttpStudents[1].tcpApp[0]  numActiveSessions:vector  ETV
attr interpolationmode  sample-hold
attr source  sum(connect)
attr title  "number of active sessions, vector"
vector 150  University.whttpStudents[1].tcpApp[0]  sentPk:vector(packetBytes)  ETV
attr interpolationmode  none
attr source  sentPk
attr title  "packets sent, vector(packetBytes)"
vector 188  University.whttpStudents[4].tcpApp[0]  numActiveSessions:vector  ETV
attr interpolationmode  sample-hold
attr source  sum(connect)
attr title  "number of active sessions, vector"
vector 186  University.whttpStudents[4].tcpApp[0]  sentPk:vector(packetBytes)  ETV
attr interpolationmode  none
attr source  sentPk
attr title  "packets sent, vector(packetBytes)"
vector 149  University.whttpStudents[1].tcpApp[0]  rcvdPk:vector(packetBytes)  ETV
attr interpolationmode  none
attr source  rcvdPk
attr title  "packets received, vector(packetBytes)"
vector 151  University.whttpStudents[1].tcpApp[0]  endToEndDelay:vector  ETV
attr interpolationmode  none
attr source  messageAge(rcvdPk)
attr title  "end-to-end delay, vector"
attr unit  s
vector 140  University.whttpStudents[0].tcpApp[0]  numActiveSessions:vector  ETV
attr interpolationmode  sample-hold
attr source  sum(connect)
attr title  "number of active sessions, vector"
vector 138  University.whttpStudents[0].tcpApp[0]  sentPk:vector(packetBytes)  ETV
attr interpolationmode  none
attr source  sentPk
attr title  "packets sent, vector(packetBytes)"
vector 137  University.whttpStudents[0].tcpApp[0]  rcvdPk:vector(packetBytes)  ETV
attr interpolationmode  none
attr source  rcvdPk
attr title  "packets received, vector(packetBytes)"
vector 139  University.whttpStudents[0].tcpApp[0]  endToEndDelay:vector  ETV
attr interpolationmode  none
attr source  messageAge(rcvdPk)
attr title  "end-to-end delay, vector"
attr unit  s
vector 173  University.whttpStudents[3].tcpApp[0]  rcvdPk:vector(packetBytes)  ETV
attr interpolationmode  none
attr source  rcvdPk
attr title  "packets received, vector(packetBytes)"
vector 175  University.whttpStudents[3].tcpApp[0]  endToEndDelay:vector  ETV
attr interpolationmode  none
attr source  messageAge(rcvdPk)
attr title  "end-to-end delay, vector"
attr unit  s
vector 236  University.whttpStudents[8].tcpApp[0]  numActiveSessions:vector  ETV
attr interpolationmode  sample-hold
attr source  sum(connect)
attr title  "number of active sessions, vector"
vector 234  University.whttpStudents[8].tcpApp[0]  sentPk:vector(packetBytes)  ETV
attr interpolationmode  none
attr source  sentPk
attr title  "packets sent, vector(packetBytes)"
vector 233  University.whttpStudents[8].tcpApp[0]  rcvdPk:vector(packetBytes)  ETV
attr interpolationmode  none
attr source  rcvdPk
attr title  "packets received, vector(packetBytes)"
vector 235  University.whttpStudents[8].tcpApp[0]  endToEndDelay:vector  ETV
attr interpolationmode  none
attr source  messageAge(rcvdPk)
attr title  "end-to-end delay, vector"
attr unit  s
vector 212  University.whttpStudents[6].tcpApp[0]  numActiveSessions:vector  ETV
attr interpolationmode  sample-hold
attr source  sum(connect)
attr title  "number of active sessions, vector"
vector 161  University.whttpStudents[2].tcpApp[0]  rcvdPk:vector(packetBytes)  ETV
attr interpolationmode  none
attr source  rcvdPk
attr title  "packets received, vector(packetBytes)"
vector 163  University.whttpStudents[2].tcpApp[0]  endToEndDelay:vector  ETV
attr interpolationmode  none
attr source  messageAge(rcvdPk)
attr title  "end-to-end delay, vector"
attr unit  s
vector 210  University.whttpStudents[6].tcpApp[0]  sentPk:vector(packetBytes)  ETV
attr interpolationmode  none
attr source  sentPk
attr title  "packets sent, vector(packetBytes)"
vector 209  University.whttpStudents[6].tcpApp[0]  rcvdPk:vector(packetBytes)  ETV
attr interpolationmode  none
attr source  rcvdPk
attr title  "packets received, vector(packetBytes)"
vector 211  University.whttpStudents[6].tcpApp[0]  endToEndDelay:vector  ETV
attr interpolationmode  none
attr source  messageAge(rcvdPk)
attr title  "end-to-end delay, vector"
attr unit  s
vector 248  University.whttpStudents[9].tcpApp[0]  numActiveSessions:vector  ETV
attr interpolationmode  sample-hold
attr source  sum(connect)
attr title  "number of active sessions, vector"
vector 246  University.whttpStudents[9].tcpApp[0]  sentPk:vector(packetBytes)  ETV
attr interpolationmode  none
attr source  sentPk
attr title  "packets sent, vector(packetBytes)"
vector 185  University.whttpStudents[4].tcpApp[0]  rcvdPk:vector(packetBytes)  ETV
attr interpolationmode  none
attr source  rcvdPk
attr title  "packets received, vector(packetBytes)"
vector 187  University.whttpStudents[4].tcpApp[0]  endToEndDelay:vector  ETV
attr interpolationmode  none
attr source  messageAge(rcvdPk)
attr title  "end-to-end delay, vector"
attr unit  s
vector 245  University.whttpStudents[9].tcpApp[0]  rcvdPk:vector(packetBytes)  ETV
attr interpolationmode  none
attr source  rcvdPk
attr title  "packets received, vector(packetBytes)"
vector 247  University.whttpStudents[9].tcpApp[0]  endToEndDelay:vector  ETV
attr interpolationmode  none
attr source  messageAge(rcvdPk)
attr title  "end-to-end delay, vector"
attr unit  s
64	11356 2757190 314 336647624 0.055446806216 3040.49707742804 76012 10240 10240 778362880 7970435891200
65	2768546 3438879 314 336647624 0.055446806216 3040.49707742804 76012 0.017080129996 0.075916225893 1347.5977736185 24.525674762517
82	6207425 2679206 20444 336647643 1.043839382041 3040.506715726309 75968 1400 1400 106355200 148897280000
83	8886631 2683581 79 336646711 0.033597961692 3040.473597961692 76012 1400 1400 106416800 148983520000
84	11570212 3436092 20444 336647643 1.043839382041 3040.506715726309 75968 0.016345628507 1.033469284239 1366.4383050401 35.924642697035
101	15006304 51067 125113 336647601 2.097924415521 3040.495455359497 1538 1 1 1538 1538
102	15057371 59008 125113 336647601 2.097924415521 3040.495455359497 1538 67 5741882 1233729528 1.9703340912886e+15
103	15116379 70992 125113 336647601 2.097924415521 3040.495455359497 1538 0.034818134469 0.076565660354 55.998475624061 2.0604589561664
104	15187371 16277 677612 336471959 7.387237974471 3038.346024717846 415 1048576 1048576 435159040 4.5629732552704e+14
105	15203648 13787 677612 336471959 7.387237974471 3038.346024717846 415 1 1 415 415
106	15217435 19171 677612 336471959 7.387237974471 3038.346024717846 415 1.253696269817 23.997231394097 2961.7486997239 23628.490918642
118	15236606 33 113 113 0.03836667622 0.03836667622 1 1433600000 1433600000 1433600000 2.05520896e+18
119	15236639 2759594 113 336646959 0.03836667622 3040.47836667622 76012 10240 10240 778362880 7970435891200
137	17996233 5417 1063498 333174051 11.037742767352 3002.335142994315 141 10509 3828061 112472713 1.7499178620689e+14
138	18001650 4685 1045858 332143388 10.775159077817 2994.675661967141 141 1 1 141 141
139	18006335 6518 1063498 333174051 11.037742767352 3002.335142994315 141 0.198057034672 27.5628462569 636.94910741561 6784.9571938505
140	18012853 9362 1042964 333174051 10.725604460364 3002.335142994315 282 0 1 141 141
149	18022215 5854 830393 336406773 8.966790587893 3037.666464944824 153 5471 5598920 122572699 2.2011264174657e+14
150	18028069 5068 805457 336372397 8.666804126842 3037.381792443147 153 1 1 153 153
151	18033137 7051 830393 336406773 8.966790587893 3037.666464944824 153 0.148096833206 27.672255547621 687.1875649177 7508.0240997038
152	18040188 10132 803102 336406773 8.61878512217 3037.666464944824 306 0 1 153 153
161	18050320 6741 1682073 336639565 15.739278332227 3040.186040379017 176 3397 3607959 136502770 2.1607195250234e+14
162	18057061 5835 124238 336586994 2.062748703181 3039.719006293183 176 1 1 176 176
163	18062896 8124 1682073 336639565 15.739278332227 3040.186040379017 176 0.103470613566 27.973187678927 769.67746016335 7714.5608067558
164	18071020 11666 122493 336639565 2.013008235156 3040.186040379017 352 0 1 176 176
173	18082686 5429 1235209 336419551 12.927311843307 3037.844705332785 142 1315 3619863 112346611 1.7245372093887e+14
174	18088115 4706 345685 336398414 4.321039510531 3037.543461461579 142 1 1 142 142
175	18092821 6560 1235209 336419551 12.927311843307 3037.844705332785 142 0.048750894804 24.076203054595 678.57053344165 7044.9611983728
176	18099381 9415 343688 336419551 4.273056466975 3037.844705332785 284 0 1 142 142
185	18108796 6304 2569805 336396298 23.400620012345 3037.507765455773 164 4808 3991542 141091000 2.4340110384109e+14
186	18115100 5450 811268 336358394 8.771813934792 3037.102323111683 164 1 1 164 164
187	18120550 7582 2569805 336396298 23.400620012345 3037.507765455773 164 0.147134000473 35.85308797334 782.10936244826 8511.7251814451
188	18128132 10902 808131 336396298 8.718985230818 3037.507765455773 328 0 1 164 164
197	18139034 5355 326744 336104213 3.736622342923 3031.41055459759 140 3691 3407658 113026785 1.6887727744242e+14
198	18144389 4645 147890 336047895 2.404285405185 3031.097990194288 140 1 1 140 140
199	18149034 6459 326744 336104213 3.736622342923 3031.41055459759 140 0.098865065802 19.619365603885 682.37205061564 6728.2396023047
200	18155493 9271 138382 336104213 2.356302371193 3031.41055459759 280 0 1 140 140
209	18164764 6613 2156826 336145912 21.429684085374 3031.851608723937 172 8450 5741882 153700084 2.8784627494098e+14
210	18171377 5709 1684084 335833117 15.780091777186 3028.382680076979 172 1 1 172 172
211	18177086 7938 2156826 336145912 21.429684085374 3031.851608723937 172 0.150752822078 39.714112782247 801.87228353861 9011.0873186522
212	18185024 11414 1675479 336145912 15.710693147455 3031.851608723937 344 0 1 172 172
221	18196438 5986 615113 336324690 6.914532850044 3035.470395315862 156 1303 4534444 114790727 1.6792753745817e+14
222	18202424 5217 590441 336646360 6.600178594725 3040.460601165622 157 1 1 157 157
223	18207641 7216 615113 336324690 6.914532850044 3035.470395315862 156 0.048420061063 23.94367287215 681.26683125153 6480.9884300792
224	18214857 10399 587964 336645295 6.552132600329 3040.414158219326 313 0 1 157 157
233	18225256 5719 1302422 336094194 13.880351041341 3031.298411492604 149 4203 3327915 114606178 1.5894313363692e+14
234	18230975 4941 1253242 336029384 13.453617254415 3030.803489885877 149 1 1 149 149
235	18235916 6894 1302422 336094194 13.880351041341 3031.298411492604 149 0.097706090534 33.951313234341 716.89764898004 7839.1442137441
236	18242810 9904 1251127 336094194 13.405571309147 3031.298411492604 298 0 1 149 149
245	18252714 5516 2667620 334791011 24.138141286245 3018.022078328827 144 67 3256627 112297014 1.596043678095e+14
246	18258230 4774 2195959 333290394 21.824190594742 3004.851813936468 144 1 1 144 144
247	18263004 6655 2667620 334791011 24.138141286245 3018.022078328827 144 0.053413535324 20.305245041845 676.19687918293 6733.5632617029
248	18269659 9547 2187562 334791011 21.775386743307 3018.022078328827 288 0 1 144 144
257	18279206 2746372 14564 336647366 1.011858161484 3040.489945030199 75715 1400 1400 106001000 148401400000
258	21025578 2759624 61 336647441 0.010370097802 3040.490370097802 76013 1400 1400 106418200 148985480000
259	23785202 3500993 14564 336647366 1.011858161484 3040.489945030199 75715 0.016321048915 1.017423572189 2299.0140649086 169.08676959396
273	27286195 13765 679635 336473007 7.402394281888 3038.359040630806 415 1 1 415 415
274	27299960 16319 20801 336475004 1.051813903043 3038.459367079692 416 1048576 1048576 436207616 4.5739683715482e+14
275	27316279 19136 679635 336473007 7.402394281888 3038.359040630806 415 1.26747709367 24.009944836461 2980.5357272393 23960.046994638
276	27335415 27565 56 336474223 0 3038.412217146972 831 0 1 416 416
64	27362980 2180634 336648848 598497121 3040.535446806216 5399.975446806216 58987 10240 10240 604026880 6185235251200
65	29543614 2709618 336648848 598497121 3040.535446806216 5399.975446806216 58987 0.017080129996 0.05795757095 1046.6633594586 19.065216319358
82	32253232 2120158 336648885 598497234 3040.546715726309 5399.986715726309 58955 1400 1400 82537000 115551800000
83	34373390 2123568 336647997 598498162 3040.513597961692 5399.993597961692 58988 1400 1400 82583200 115616480000
84	36496958 2707531 336648885 598497234 3040.546715726309 5399.986715726309 58955 0.016345628507 0.143710865403 1049.4544338554 19.896557973141
101	39204489 39290 336723956 598322320 3041.465031077819 5398.736734701343 1159 1 1 1159 1159
102	39243779 45309 336723956 598322320 3041.465031077819 5398.736734701343 1159 1562 6590282 948658921 1.4669688189328e+15
103	39289088 54323 336723956 598322320 3041.465031077819 5398.736734701343 1159 0.034818134469 0.091235386214 42.154951019064 1.551773078567
104	39343411 13447 337253842 597972711 3044.831512668622 5396.633806451147 337 1048576 1048576 353370112 3.7053541856051e+14
105	39356858 11425 337253842 597972711 3044.831512668622 5396.633806451147 337 1 1 337 337
106	39368283 15795 337253842 597972711 3044.831512668622 5396.633806451147 337 1.519389692733 24.00197779225 2281.6076440946 17248.658761581
119	39384078 2182556 336648008 598498286 3040.51836667622 5399.99836667622 58988 10240 10240 604037120 6185340108800
137	41566634 4952 337590458 595387248 3050.346108375967 5366.701498197632 127 4233 3545765 93908347 1.2556877218626e+14
138	41571586 4338 337463195 597707991 3048.544217352916 5393.396235787768 128 1 1 128 128
139	41575924 5958 337590458 595387248 3050.346108375967 5366.701498197632 127 0.097719227246 21.394994048713 572.03827976379 5429.5615971408
140	41581882 8641 337457735 597706673 3048.496551499292 5393.348569934144 255 0 1 128 128
149	41590523 4921 337698160 594598777 3051.978168402324 5356.457160654266 126 2000 2987562 96734333 1.3384756837432e+14
150	41595444 4275 337665155 592819249 3051.642997521768 5343.099378866155 126 1 1 126 126
151	41599719 5906 337698160 594598777 3051.978168402324 5356.457160654266 126 0.147987926178 22.134237250897 549.49462668807 5352.7740309433
152	41605625 8537 337664002 594598777 3051.594928552706 5356.457160654266 252 0 1 126 126
161	41614162 4231 338415149 597704064 3060.59981235403 5393.265391864304 108 18860 3210498 87969970 1.1545330370315e+14
162	41618393 3659 338386333 596916772 3060.251813936002 5387.080978982422 108 1 1 108 108
163	41622052 5068 338415149 597704064 3060.59981235403 5393.265391864304 108 0.198753201298 19.370044930704 533.85090721584 4836.1460735334
164	41627120 7320 338384517 597704064 3060.204843731028 5393.265391864304 216 0 1 108 108
173	41634440 4067 337581954 598201287 3049.990395500212 5398.230142837591 104 13028 4474749 83035769 1.3140862648688e+14
174	41638507 3524 336722786 598154240 3041.430149847074 5397.829053079947 104 1 1 104 104
175	41642031 4881 337581954 598201287 3049.990395500212 5398.230142837591 104 0.195809740505 33.42983078531 513.55530972488 6143.2933584572
176	41646912 7050 336721719 598201287 3041.383706876198 5398.230142837591 208 0 1 104 104
185	41653962 4222 337166993 598402042 3044.355514896887 5399.143658916935 108 13510 3403580 88059638 1.3502199496117e+14
186	41658184 3661 336748484 598207817 3041.781221644852 5398.257011471842 108 1 1 108 108
187	41661845 5076 337166993 598402042 3044.355514896887 5399.143658916935 108 0.200669524344 34.984546960207 552.56451007781 6436.5989469423
188	41666921 7328 336738370 598402042 3041.731738688173 5399.143658916935 216 0 1 108 108
197	41674249 4696 339418129 598395138 3069.630722148661 5399.114076471478 120 2937 4928772 106148737 1.7149226581519e+14
198	41678945 4071 337865934 598314328 3054.032248259167 5398.701898477771 120 1 1 120 120
199	41683016 5634 339418129 598395138 3069.630722148661 5399.114076471478 120 0.097590267982 25.254490440115 600.91986337408 5755.5789383333
200	41688650 8141 337825352 598395138 3053.868075804904 5399.114076471478 240 0 1 120 120
209	41696791 4794 337418391 597360715 3047.140461498684 5390.230338530337 123 4498 3240968 89087247 1.3256744302526e+14
210	41701585 4160 336979919 596686667 3043.49181389866 5384.420930239006 123 1 1 123 123
211	41705745 5764 337418391 597360715 3047.140461498684 5390.230338530337 123 0.143634888571 19.738386533068 475.85509092337 4244.7124496547
212	41711509 8333 336972619 597360715 3043.44261250515 5390.230338530337 246 0 1 123 123
221	41719842 4895 336712102 598230821 3040.975661344432 5398.357570187311 125 1704 6590282 107920182 1.9521605887058e+14
222	41724737 4211 337155051 597978566 3044.294673950565 5396.759275023047 124 1 1 124 124
223	41728948 5862 336712102 598230821 3040.975661344432 5398.357570187311 125 0.198008211505 17.988875396534 570.97837327559 5289.9669677527
224	41734810 8442 336712102 598230821 3040.975661344432 5398.357570187311 249 0 1 124 124
233	41743252 4373 340149843 596971229 3074.754648799641 5387.411071588456 112 17911 3387731 91623398 1.334794157057e+14
234	41747625 3791 339026422 596900623 3067.342165673713 5386.925880348738 112 1 1 112 112
235	41751416 5253 340149843 596971229 3074.754648799641 5387.411071588456 112 0.201430823468 20.674309751448 531.10074348595 4982.3222222219
236	41756669 7626 339021934 598498168 3067.294535888445 5399.994843151927 225 0 1 113 113
245	41764295 4106 338339046 595582173 3058.717726270056 5369.003254969354 105 1562 3764644 98419379 1.7184287015366e+14
246	41768401 3598 337787629 598156941 3053.462258660772 5397.904409583828 106 1 1 106 106
247	41771999 4925 338339046 595582173 3058.717726270056 5369.003254969354 105 0.095396635394 64.944225408252 734.47201062469 15294.796848748
248	41776924 7145 337786552 598155079 3053.415815678464 5397.855811607418 211 0 1 106 106
257	41784069 2171860 336648504 598496892 3040.529945030199 5399.969945030199 58749 1400 1400 82248600 115148040000
258	43955929 2182519 336648572 598496960 3040.530370097802 5399.970370097802 58987 1400 1400 82581800 115614520000
259	46138448 2757459 336648504 598496892 3040.529945030199 5399.969945030199 58749 0.016319118792 0.229187192191 1758.2772677439 116.9234721892
273	48895907 11426 337264107 597974809 3044.873177176671 5396.647221644199 337 1 1 337 337
274	48907333 13459 337268256 597977789 3044.971845236376 5396.742798276665 337 1048576 1048576 353370112 3.7053541856051e+14
275	48920792 15796 337264107 597974809 3044.873177176671 5396.647221644199 337 1.532148135097 24.014682234614 2302.4913930596 17537.394319711
276	48936588 22849 337264107 597976516 3044.873177176671 5396.695435032538 674 0 1 337 337
