file 48782362 1471545001                                        
version 2
run _10on-7-20160818-19:21:26-30554
attr configname _10on
attr datetime 20160818-19:21:26
attr experiment _10on
attr inifile omnetpp.ini
attr iterationvars ""
attr iterationvars2 $repetition=7
attr measurement ""
attr network University
attr processid 30554
attr repetition 7
attr replication #7
attr resultdir results
attr runnumber 7
attr seedset 7

vector 276  University.whostFTP.tcpApp[0]  numActiveSessions:vector  ETV
attr interpolationmode  sample-hold
attr source  sum(connect)
attr title  "number of active sessions, vector"
vector 83  University.profLaptop.udpApp[0]  sentPk:vector(packetBytes)  ETV
attr interpolationmode  none
attr source  sentPk
attr title  "packets sent, vector(packetBytes)"
vector 258  University.whostVideoConf.udpApp[0]  sentPk:vector(packetBytes)  ETV
attr interpolationmode  none
attr source  sentPk
attr title  "packets sent, vector(packetBytes)"
vector 118  University.CCTV.udpApp[0]  reqStreamBytes:vector  ETV
attr interpolationmode  none
attr title  "requested stream bytes, vector"
vector 119  University.CCTV.udpApp[0]  sentPk:vector(packetBytes)  ETV
attr interpolationmode  none
attr source  sentPk
attr title  "packets sent, vector(packetBytes)"
vector 64  University.ccTVMonitoringHost.udpApp[0]  rcvdPk:vector(packetBytes)  ETV
attr interpolationmode  none
attr source  rcvdPk
attr title  "packets received, vector(packetBytes)"
vector 65  University.ccTVMonitoringHost.udpApp[0]  endToEndDelay:vector  ETV
attr interpolationmode  none
attr source  messageAge(rcvdPk)
attr title  "end-to-end delay, vector"
attr unit  s
vector 274  University.whostFTP.tcpApp[0]  sentPk:vector(packetBytes)  ETV
attr interpolationmode  none
attr source  sentPk
attr title  "packets sent, vector(packetBytes)"
vector 82  University.profLaptop.udpApp[0]  rcvdPk:vector(packetBytes)  ETV
attr interpolationmode  none
attr source  rcvdPk
attr title  "packets received, vector(packetBytes)"
vector 84  University.profLaptop.udpApp[0]  rcvdPkLifetime:vector  ETV
attr interpolationmode  none
attr source  messageAge(rcvdPk)
attr title  "received packet lifetime, vector"
attr unit  s
vector 257  University.whostVideoConf.udpApp[0]  rcvdPk:vector(packetBytes)  ETV
attr interpolationmode  none
attr source  rcvdPk
attr title  "packets received, vector(packetBytes)"
vector 259  University.whostVideoConf.udpApp[0]  rcvdPkLifetime:vector  ETV
attr interpolationmode  none
attr source  messageAge(rcvdPk)
attr title  "received packet lifetime, vector"
attr unit  s
vector 104  University.Server.tcpApp[1]  rcvdPk:vector(packetBytes)  ETV
attr interpolationmode  none
attr source  rcvdPk
attr title  "packets received, vector(packetBytes)"
vector 106  University.Server.tcpApp[1]  endToEndDelay:vector  ETV
attr interpolationmode  none
attr source  messageAge(rcvdPk)
attr title  "end-to-end delay, vector"
attr unit  s
vector 105  University.Server.tcpApp[1]  sentPk:vector(packetBytes)  ETV
attr interpolationmode  none
attr source  sentPk
attr title  "packets sent, vector(packetBytes)"
vector 273  University.whostFTP.tcpApp[0]  rcvdPk:vector(packetBytes)  ETV
attr interpolationmode  none
attr source  rcvdPk
attr title  "packets received, vector(packetBytes)"
vector 275  University.whostFTP.tcpApp[0]  endToEndDelay:vector  ETV
attr interpolationmode  none
attr source  messageAge(rcvdPk)
attr title  "end-to-end delay, vector"
attr unit  s
vector 152  University.whttpStudents[1].tcpApp[0]  numActiveSessions:vector  ETV
attr interpolationmode  sample-hold
attr source  sum(connect)
attr title  "number of active sessions, vector"
vector 150  University.whttpStudents[1].tcpApp[0]  sentPk:vector(packetBytes)  ETV
attr interpolationmode  none
attr source  sentPk
attr title  "packets sent, vector(packetBytes)"
vector 101  University.Server.tcpApp[0]  rcvdPk:vector(packetBytes)  ETV
attr interpolationmode  none
attr source  rcvdPk
attr title  "packets received, vector(packetBytes)"
vector 103  University.Server.tcpApp[0]  endToEndDelay:vector  ETV
attr interpolationmode  none
attr source  messageAge(rcvdPk)
attr title  "end-to-end delay, vector"
attr unit  s
vector 102  University.Server.tcpApp[0]  sentPk:vector(packetBytes)  ETV
attr interpolationmode  none
attr source  sentPk
attr title  "packets sent, vector(packetBytes)"
vector 149  University.whttpStudents[1].tcpApp[0]  rcvdPk:vector(packetBytes)  ETV
attr interpolationmode  none
attr source  rcvdPk
attr title  "packets received, vector(packetBytes)"
vector 151  University.whttpStudents[1].tcpApp[0]  endToEndDelay:vector  ETV
attr interpolationmode  none
attr source  messageAge(rcvdPk)
attr title  "end-to-end delay, vector"
attr unit  s
vector 248  University.whttpStudents[9].tcpApp[0]  numActiveSessions:vector  ETV
attr interpolationmode  sample-hold
attr source  sum(connect)
attr title  "number of active sessions, vector"
vector 246  University.whttpStudents[9].tcpApp[0]  sentPk:vector(packetBytes)  ETV
attr interpolationmode  none
attr source  sentPk
attr title  "packets sent, vector(packetBytes)"
vector 245  University.whttpStudents[9].tcpApp[0]  rcvdPk:vector(packetBytes)  ETV
attr interpolationmode  none
attr source  rcvdPk
attr title  "packets received, vector(packetBytes)"
vector 247  University.whttpStudents[9].tcpApp[0]  endToEndDelay:vector  ETV
attr interpolationmode  none
attr source  messageAge(rcvdPk)
attr title  "end-to-end delay, vector"
attr unit  s
vector 212  University.whttpStudents[6].tcpApp[0]  numActiveSessions:vector  ETV
attr interpolationmode  sample-hold
attr source  sum(connect)
attr title  "number of active sessions, vector"
vector 210  University.whttpStudents[6].tcpApp[0]  sentPk:vector(packetBytes)  ETV
attr interpolationmode  none
attr source  sentPk
attr title  "packets sent, vector(packetBytes)"
vector 209  University.whttpStudents[6].tcpApp[0]  rcvdPk:vector(packetBytes)  ETV
attr interpolationmode  none
attr source  rcvdPk
attr title  "packets received, vector(packetBytes)"
vector 211  University.whttpStudents[6].tcpApp[0]  endToEndDelay:vector  ETV
attr interpolationmode  none
attr source  messageAge(rcvdPk)
attr title  "end-to-end delay, vector"
attr unit  s
vector 176  University.whttpStudents[3].tcpApp[0]  numActiveSessions:vector  ETV
attr interpolationmode  sample-hold
attr source  sum(connect)
attr title  "number of active sessions, vector"
vector 174  University.whttpStudents[3].tcpApp[0]  sentPk:vector(packetBytes)  ETV
attr interpolationmode  none
attr source  sentPk
attr title  "packets sent, vector(packetBytes)"
vector 173  University.whttpStudents[3].tcpApp[0]  rcvdPk:vector(packetBytes)  ETV
attr interpolationmode  none
attr source  rcvdPk
attr title  "packets received, vector(packetBytes)"
vector 175  University.whttpStudents[3].tcpApp[0]  endToEndDelay:vector  ETV
attr interpolationmode  none
attr source  messageAge(rcvdPk)
attr title  "end-to-end delay, vector"
attr unit  s
vector 188  University.whttpStudents[4].tcpApp[0]  numActiveSessions:vector  ETV
attr interpolationmode  sample-hold
attr source  sum(connect)
attr title  "number of active sessions, vector"
vector 186  University.whttpStudents[4].tcpApp[0]  sentPk:vector(packetBytes)  ETV
attr interpolationmode  none
attr source  sentPk
attr title  "packets sent, vector(packetBytes)"
vector 164  University.whttpStudents[2].tcpApp[0]  numActiveSessions:vector  ETV
attr interpolationmode  sample-hold
attr source  sum(connect)
attr title  "number of active sessions, vector"
vector 162  University.whttpStudents[2].tcpApp[0]  sentPk:vector(packetBytes)  ETV
attr interpolationmode  none
attr source  sentPk
attr title  "packets sent, vector(packetBytes)"
vector 161  University.whttpStudents[2].tcpApp[0]  rcvdPk:vector(packetBytes)  ETV
attr interpolationmode  none
attr source  rcvdPk
attr title  "packets received, vector(packetBytes)"
vector 163  University.whttpStudents[2].tcpApp[0]  endToEndDelay:vector  ETV
attr interpolationmode  none
attr source  messageAge(rcvdPk)
attr title  "end-to-end delay, vector"
attr unit  s
vector 185  University.whttpStudents[4].tcpApp[0]  rcvdPk:vector(packetBytes)  ETV
attr interpolationmode  none
attr source  rcvdPk
attr title  "packets received, vector(packetBytes)"
vector 187  University.whttpStudents[4].tcpApp[0]  endToEndDelay:vector  ETV
attr interpolationmode  none
attr source  messageAge(rcvdPk)
attr title  "end-to-end delay, vector"
attr unit  s
vector 224  University.whttpStudents[7].tcpApp[0]  numActiveSessions:vector  ETV
attr interpolationmode  sample-hold
attr source  sum(connect)
attr title  "number of active sessions, vector"
vector 222  University.whttpStudents[7].tcpApp[0]  sentPk:vector(packetBytes)  ETV
attr interpolationmode  none
attr source  sentPk
attr title  "packets sent, vector(packetBytes)"
vector 140  University.whttpStudents[0].tcpApp[0]  numActiveSessions:vector  ETV
attr interpolationmode  sample-hold
attr source  sum(connect)
attr title  "number of active sessions, vector"
vector 138  University.whttpStudents[0].tcpApp[0]  sentPk:vector(packetBytes)  ETV
attr interpolationmode  none
attr source  sentPk
attr title  "packets sent, vector(packetBytes)"
vector 137  University.whttpStudents[0].tcpApp[0]  rcvdPk:vector(packetBytes)  ETV
attr interpolationmode  none
attr source  rcvdPk
attr title  "packets received, vector(packetBytes)"
vector 139  University.whttpStudents[0].tcpApp[0]  endToEndDelay:vector  ETV
attr interpolationmode  none
attr source  messageAge(rcvdPk)
attr title  "end-to-end delay, vector"
attr unit  s
vector 221  University.whttpStudents[7].tcpApp[0]  rcvdPk:vector(packetBytes)  ETV
attr interpolationmode  none
attr source  rcvdPk
attr title  "packets received, vector(packetBytes)"
vector 223  University.whttpStudents[7].tcpApp[0]  endToEndDelay:vector  ETV
attr interpolationmode  none
attr source  messageAge(rcvdPk)
attr title  "end-to-end delay, vector"
attr unit  s
vector 200  University.whttpStudents[5].tcpApp[0]  numActiveSessions:vector  ETV
attr interpolationmode  sample-hold
attr source  sum(connect)
attr title  "number of active sessions, vector"
vector 198  University.whttpStudents[5].tcpApp[0]  sentPk:vector(packetBytes)  ETV
attr interpolationmode  none
attr source  sentPk
attr title  "packets sent, vector(packetBytes)"
vector 197  University.whttpStudents[5].tcpApp[0]  rcvdPk:vector(packetBytes)  ETV
attr interpolationmode  none
attr source  rcvdPk
attr title  "packets received, vector(packetBytes)"
vector 199  University.whttpStudents[5].tcpApp[0]  endToEndDelay:vector  ETV
attr interpolationmode  none
attr source  messageAge(rcvdPk)
attr title  "end-to-end delay, vector"
attr unit  s
vector 236  University.whttpStudents[8].tcpApp[0]  numActiveSessions:vector  ETV
attr interpolationmode  sample-hold
attr source  sum(connect)
attr title  "number of active sessions, vector"
vector 234  University.whttpStudents[8].tcpApp[0]  sentPk:vector(packetBytes)  ETV
attr interpolationmode  none
attr source  sentPk
attr title  "packets sent, vector(packetBytes)"
vector 233  University.whttpStudents[8].tcpApp[0]  rcvdPk:vector(packetBytes)  ETV
attr interpolationmode  none
attr source  rcvdPk
attr title  "packets received, vector(packetBytes)"
vector 235  University.whttpStudents[8].tcpApp[0]  endToEndDelay:vector  ETV
attr interpolationmode  none
attr source  messageAge(rcvdPk)
attr title  "end-to-end delay, vector"
attr unit  s
64	11356 2758954 381 388544096 0.058317645156 3041.018317645156 76025 10240 10240 778496000 7971799040000
65	2770310 3436466 381 388544096 0.058317645156 3041.018317645156 76025 0.017080129996 0.059927110508 1371.7149540737 25.511155718759
82	6206776 2636032 17413 388543566 1.045847020101 3041.01359386643 76021 1400 1400 106429400 149001160000
83	8842808 2687461 61 388543550 0.012758889105 3041.012758889105 76026 1400 1400 106436400 149010960000
84	11530269 3392564 17413 388543566 1.045847020101 3041.01359386643 76021 0.016345625498 1.008598779169 1377.3571157625 35.807907651304
101	14922833 53456 342514 388541331 5.581770792498 3040.933015363313 1607 1 1 1607 1607
102	14976289 61767 342514 388541331 5.581770792498 3040.933015363313 1607 1339 6581727 1313874167 2.113018049215e+15
103	15038056 74088 342514 388541331 5.581770792498 3040.933015363313 1607 0.01319099364 0.045522958587 24.791670650363 0.41095617882369
104	15112144 23808 240201 387892012 4.706506010319 3037.63050500618 607 1048576 1048576 636485632 6.6740355806003e+14
105	15135952 20166 240201 387892012 4.706506010319 3037.63050500618 607 1 1 607 607
106	15156118 28013 240201 387892012 4.706506010319 3037.63050500618 607 1.211055544017 16.89769412153 2950.2047910148 15760.965311373
118	15184131 33 187 187 0.04123751516 0.04123751516 1 1433600000 1433600000 1433600000 2.05520896e+18
119	15184164 2763460 187 388543433 0.04123751516 3041.00123751516 76025 10240 10240 778496000 7971799040000
137	17947624 6535 1904142 385686830 19.763613310368 3018.727024269903 170 3345 4767293 144846751 2.4545688594766e+14
138	17954159 5668 1829511 385504764 19.318594537239 3017.664852929661 170 1 1 170 170
139	17959827 7857 1904142 385686830 19.763613310368 3018.727024269903 170 0.115492567479 26.191113817365 609.07108793458 4536.658520281
140	17967684 11322 1827886 385686830 19.281278008667 3018.727024269903 340 0 1 170 170
149	17979006 6335 358461 387798605 5.775559116067 3036.6660990044 165 6670 6581727 130051434 2.2427145825179e+14
150	17985341 5486 341986 386810398 5.56253496796 3029.638594537097 165 1 1 165 165
151	17990827 7626 358461 387798605 5.775559116067 3036.6660990044 165 0.105430588852 51.244140401481 600.91850913197 6748.3038174135
152	17998453 10976 340016 387798605 5.522816594271 3036.6660990044 330 0 1 165 165
161	18009429 6912 1050220 387635772 11.984544207212 3034.307733911964 180 16838 4436480 156536060 2.5140286317245e+14
162	18016341 5972 855425 387566504 10.462806108052 3033.95347615612 180 1 1 180 180
163	18022313 8299 1050220 387635772 11.984544207212 3034.307733911964 180 0.132242764512 18.74837814555 636.43590186119 4538.4253684376
164	18030612 11952 853180 387635772 10.430859374296 3034.307733911964 360 0 1 180 180
173	18042564 5124 655591 386213209 8.39292353788 3024.523034304133 134 4901 2816047 95614669 1.2234241348027e+14
174	18047688 4432 636020 385141694 8.186959667038 3015.68416841208 134 1 1 134 134
175	18052120 6172 655591 386213209 8.39292353788 3024.523034304133 134 0.136335093389 22.975198553677 484.49530540416 3807.0604922022
176	18058292 8871 632991 386213209 8.154680483121 3024.523034304133 268 0 1 134 134
185	18067163 5663 1262120 388435535 14.016236152077 3040.248865669365 147 10597 3897041 129013464 2.1325712301767e+14
186	18072826 4893 852753 388414900 10.42560289134 3040.096580357726 147 1 1 147 147
187	18077719 6792 1262120 388435535 14.016236152077 3040.248865669365 147 0.152285311639 17.101197870547 573.14725923385 4151.7676906571
188	18084511 9780 850999 388435535 10.393683078228 3040.248865669365 294 0 1 147 147
197	18094291 6189 2892909 388350327 30.927340893456 3039.827259928939 161 1339 3489339 133132397 2.0678180013813e+14
198	18100480 5349 2811440 386984191 30.497608213418 3030.804696638666 161 1 1 161 161
199	18105829 7445 2892909 388350327 30.927340893456 3039.827259928939 161 0.078681196508 35.234421639109 624.18358576034 5895.3931371041
200	18113274 10689 2809746 388350327 30.465652495106 3039.827259928939 322 0 1 161 161
209	18123963 6490 496231 386211173 7.496999027435 3024.496559832247 169 1810 4739603 133733651 2.3280462948352e+14
210	18130453 5660 463777 388540687 7.225270422913 3040.919815336391 170 1 1 170 170
211	18136113 7816 496231 386211173 7.496999027435 3024.496559832247 169 0.064201918989 22.796402392176 582.65232680891 4707.6342233474
212	18143929 11283 462537 388539961 7.193323660225 3040.889462620089 339 0 1 170 170
221	18155212 6460 2157844 388495564 23.089192538077 3040.504787109258 168 2715 4527973 119981979 1.8215947167555e+14
222	18161672 5607 1455655 388425233 16.88439159954 3040.166768190915 168 1 1 168 168
223	18167279 7771 2157844 388495564 23.089192538077 3040.504787109258 168 0.107972294927 43.7442221218 550.45126587924 5457.260931985
224	18175050 11197 1442376 388495564 16.828079831561 3040.504787109258 336 0 1 168 168
233	18186247 5880 5730651 388422018 50.534968306019 3040.127069211315 153 4775 4527014 129525128 2.1252010927147e+14
234	18192127 5086 4177046 387436467 40.17483368649 3033.284245399215 153 1 1 153 153
235	18197213 7074 5730651 388422018 50.534968306019 3040.127069211315 153 0.102176838133 25.012583114193 572.66082300374 4717.6584653674
236	18204287 10181 3473443 388422018 36.051591147907 3040.127069211315 306 0 1 153 153
245	18214468 6112 453288 385801610 6.870381737643 3019.986412914015 159 6886 3078170 141092110 2.2190121589395e+14
246	18220580 5281 375442 385764816 6.401036047918 3019.748933963548 159 1 1 159 159
247	18225861 7350 453288 385801610 6.870381737643 3019.986412914015 159 0.134311303502 18.490914853961 615.41782966601 4679.1496999257
248	18233211 10559 374163 385801610 6.369098285642 3019.986412914015 318 0 1 159 159
257	18243770 2707599 18047 388544829 1.048591035594 3041.029105954603 74586 1400 1400 104420400 146188560000
258	20951369 2763456 150 388543301 0.037248240932 3040.997248240932 76025 1400 1400 106435000 149009000000
259	23714825 3450019 18047 388542981 1.048591035594 3040.989105954603 74585 0.016320009223 1.035832146489 2368.3442226143 163.50665337584
273	27164844 20198 242506 387892489 4.724783469188 3037.648746465049 607 1 1 607 607
274	27185042 23864 15459 387894923 1.035205920179 3037.711337052535 608 1048576 1048576 637534208 6.6850306968781e+14
275	27208906 28017 242506 387892489 4.724783469188 3037.648746465049 607 1.230241582144 16.915953580399 2985.6300717228 16213.078919362
276	27236923 40393 56 387893786 0 3037.680268240891 1215 0 1 608 608
64	27277316 2178701 388547406 695405812 3041.058317645156 5399.980759292567 58974 10240 10240 603893760 6183872102400
65	29456017 2704543 388547406 695405812 3041.058317645156 5399.980759292567 58974 0.017080129996 0.05765079648 1062.7151988115 19.73092198078
82	32160560 2083799 388546462 695407327 3041.05359386643 5399.986747292566 58973 1400 1400 82562200 115587080000
83	34244359 2123064 388546270 695403674 3041.052758889105 5399.972758889105 58974 1400 1400 82563600 115589040000
84	36367423 2670752 388546462 695407327 3041.05359386643 5399.986747292566 58973 0.016345625498 0.212983829269 1058.197968539 20.418911144886
101	39038175 43308 388552907 695229631 3041.111074986786 5398.919094721502 1277 1 1 1277 1277
102	39081483 49909 388552907 695229631 3041.111074986786 5398.919094721502 1277 327 6076086 1067315164 1.7663958010756e+15
103	39131392 59711 388552907 695229631 3041.111074986786 5398.919094721502 1277 0.01319099364 0.069594676904 19.593465200089 0.32592387620381
104	39191103 18180 388664935 694912395 3041.916570125823 5396.350158102283 456 1048576 1048576 478150656 5.0137730226586e+14
105	39209283 15444 388664935 694912395 3041.916570125823 5396.350158102283 456 1 1 456 456
106	39224727 21333 388664935 694912395 3041.916570125823 5396.350158102283 456 1.766477910437 19.100736232583 2289.1397984647 13219.579180082
119	39246060 2182038 388545112 695400993 3041.04123751516 5399.96123751516 58974 10240 10240 603893760 6183872102400
137	41428098 4808 391429039 689003754 3059.812473870369 5344.459206468241 123 4212 4905070 107045081 1.6731931096257e+14
138	41432906 4171 390586248 688885856 3055.140838469481 5343.963876758812 123 1 1 123 123
139	41437077 5754 391429039 689003754 3059.812473870369 5344.459206468241 123 0.090607917202 13.698133168655 442.71822563244 2926.76409607
140	41442831 8329 390584434 689003754 3055.110485735231 5344.459206468241 246 0 1 123 123
149	41451160 5456 388609941 693135033 3041.354362662217 5381.641503183977 140 327 3118549 105820623 1.4850741442985e+14
150	41456616 4778 388552147 693967331 3041.097874933368 5388.149893965433 141 1 1 141 141
151	41461394 6555 388609941 693135033 3041.354362662217 5381.641503183977 140 0.037966682321 18.17720597674 465.42403799597 3237.479882908
152	41467949 9520 388547495 693965952 3041.065542844376 5388.119541231467 281 0 1 141 141
161	41477469 5495 388807194 693381123 3042.732367283066 5383.331610951041 141 1709 4840457 99736403 1.6186573276815e+14
162	41482964 4783 388732199 693109322 3042.398034768224 5381.460116429687 141 1 1 141 141
163	41487747 6613 388807194 693381123 3042.732367283066 5383.331610951041 141 0.067697247779 16.999861465802 462.68151717861 3550.7138494568
164	41494360 9567 388710659 693381123 3042.308120711386 5383.331610951041 282 0 1 141 141
173	41503927 5075 388854709 693276433 3043.147900687453 5382.30834460743 130 860 6076086 107237176 2.0352380092268e+14
174	41509002 4438 388834419 694610237 3042.922249429809 5394.656181491754 131 1 1 131 131
175	41513440 6097 388854709 693276433 3043.147900687453 5382.30834460743 130 0.031877682001 38.120806689269 479.99762734165 4382.9420794738
176	41519537 8856 388832288 694600579 3042.891082966169 5394.615731477835 261 0 1 131 131
185	41528393 4462 391416775 687936421 3059.762219124117 5337.860818679431 114 1939 3197001 107466347 1.6811395417116e+14
186	41532855 3902 389771101 695051859 3049.469979172195 5397.579380018667 115 1 1 115 115
187	41536757 5343 391416775 687936421 3059.762219124117 5337.860818679431 114 0.066696502891 17.872423756641 522.99551360788 4164.8451203545
188	41542100 7755 389767072 695049231 3049.439626430681 5397.547742380709 229 0 1 115 115
197	41549855 5068 391421010 694035879 3059.779805367182 5388.525420123199 130 1540 4032148 110465299 1.8734742142365e+14
198	41554923 4405 390216793 693965504 3052.420716844347 5388.109890636215 130 1 1 130 130
199	41559328 6090 391421010 694035879 3059.779805367182 5388.525420123199 130 0.068215114407 39.471071182091 524.91454928722 5523.2875781362
200	41565418 8807 390214886 694035879 3052.390364150233 5388.525420123199 260 0 1 130 130
209	41574225 4498 388609125 693896980 3041.351092425701 5386.671244657899 115 3214 4899556 105664865 1.9950134246912e+14
210	41578723 3868 389978397 693106207 3051.024665574998 5381.404927608148 114 1 1 114 114
211	41582591 5383 388609125 693896980 3041.351092425701 5386.671244657899 115 0.070837363534 19.562267601871 451.25268939314 3381.732266451
212	41587974 7754 388609125 693896980 3041.351092425701 5386.671244657899 229 0 1 114 114
221	41595728 4841 391585988 693308264 3060.854365194324 5382.799434988231 124 10386 3331694 90426723 1.1730489989422e+14
222	41600569 4202 390797537 692794356 3056.552275708683 5379.569874907766 124 1 1 124 124
223	41604771 5809 391585988 693308264 3060.854365194324 5382.799434988231 124 0.140716654055 38.856803972584 460.94525449146 4502.217167302
224	41610580 8408 390657047 693308264 3055.496322948818 5382.799434988231 248 0 1 124 124
233	41618988 4889 389575150 692771019 3048.137338410693 5379.440486652519 125 2126 5653946 121452103 2.3963884336852e+14
234	41623877 4233 388847376 692493594 3043.106533163669 5377.371967863227 125 1 1 125 125
235	41628110 5850 389575150 692771019 3048.137338410693 5379.440486652519 125 0.06428617636 24.504829323263 482.45159918303 4276.4256145735
236	41633960 8473 388842299 692771019 3043.073291333954 5379.440486652519 250 0 1 125 125
245	41642433 5162 389821215 694640518 3049.787789205293 5394.781800521517 132 2079 3950788 107275649 1.6541229205729e+14
246	41647595 4508 389026359 695228645 3044.387658118857 5398.90549332478 133 1 1 133 133
247	41652103 6187 389821215 694640518 3049.787789205293 5394.781800521517 132 0.099698500157 32.768367981202 479.62667712566 4353.1241213205
248	41658290 8981 389024978 695225929 3044.356100516581 5398.872911351665 265 0 1 133 133
257	41667271 2135838 388547704 695408191 3041.069105954603 5399.989821524427 57803 1400 1400 80924200 113293880000
258	43803109 2182075 388544961 695410104 3041.037248240932 5399.997248240932 58975 1400 1400 82565000 115591000000
259	45985184 2711213 388544829 695408191 3041.029105954603 5399.989821524427 57804 0.016320864838 0.17979864648 1872.0251943966 124.57357724826
273	48696397 15473 388667003 694914195 3041.934847584692 5396.368390561152 456 1 1 456 456
274	48711870 18191 388668580 694918739 3041.998625873837 5396.43865720717 456 1048576 1048576 478150656 5.0137730226586e+14
275	48730061 21363 388667003 694914195 3041.934847584692 5396.368390561152 456 1.784985893504 19.118986691452 2306.3740303631 13393.148016547
276	48751424 30938 388667003 694916557 3041.934847584692 5396.402460662908 912 0 1 456 456
