file 32237622 1471540138                                        
version 2
run _10off-8-20160818-18:37:40-22247
attr configname _10off
attr datetime 20160818-18:37:40
attr experiment _10off
attr inifile omnetpp.ini
attr iterationvars ""
attr iterationvars2 $repetition=8
attr measurement ""
attr network University
attr processid 22247
attr repetition 8
attr replication #8
attr resultdir /utmnt/ut/si/sinp1070
attr runnumber 8
attr seedset 8

vector 262  University.whostFTP.tcpApp[0]  numActiveSessions:vector  ETV
attr interpolationmode  sample-hold
attr source  sum(connect)
attr title  "number of active sessions, vector"
vector 244  University.whostVideoConf.udpApp[0]  sentPk:vector(packetBytes)  ETV
attr interpolationmode  none
attr source  sentPk
attr title  "packets sent, vector(packetBytes)"
vector 76  University.profLaptop.udpApp[0]  sentPk:vector(packetBytes)  ETV
attr interpolationmode  none
attr source  sentPk
attr title  "packets sent, vector(packetBytes)"
vector 222  University.whttpStudents[8].tcpApp[0]  numActiveSessions:vector  ETV
attr interpolationmode  sample-hold
attr source  sum(connect)
attr title  "number of active sessions, vector"
vector 243  University.whostVideoConf.udpApp[0]  rcvdPk:vector(packetBytes)  ETV
attr interpolationmode  none
attr source  rcvdPk
attr title  "packets received, vector(packetBytes)"
vector 245  University.whostVideoConf.udpApp[0]  rcvdPkLifetime:vector  ETV
attr interpolationmode  none
attr source  messageAge(rcvdPk)
attr title  "received packet lifetime, vector"
attr unit  s
vector 75  University.profLaptop.udpApp[0]  rcvdPk:vector(packetBytes)  ETV
attr interpolationmode  none
attr source  rcvdPk
attr title  "packets received, vector(packetBytes)"
vector 77  University.profLaptop.udpApp[0]  rcvdPkLifetime:vector  ETV
attr interpolationmode  none
attr source  messageAge(rcvdPk)
attr title  "received packet lifetime, vector"
attr unit  s
vector 260  University.whostFTP.tcpApp[0]  sentPk:vector(packetBytes)  ETV
attr interpolationmode  none
attr source  sentPk
attr title  "packets sent, vector(packetBytes)"
vector 220  University.whttpStudents[8].tcpApp[0]  sentPk:vector(packetBytes)  ETV
attr interpolationmode  none
attr source  sentPk
attr title  "packets sent, vector(packetBytes)"
vector 94  University.Server.tcpApp[0]  rcvdPk:vector(packetBytes)  ETV
attr interpolationmode  none
attr source  rcvdPk
attr title  "packets received, vector(packetBytes)"
vector 96  University.Server.tcpApp[0]  endToEndDelay:vector  ETV
attr interpolationmode  none
attr source  messageAge(rcvdPk)
attr title  "end-to-end delay, vector"
attr unit  s
vector 95  University.Server.tcpApp[0]  sentPk:vector(packetBytes)  ETV
attr interpolationmode  none
attr source  sentPk
attr title  "packets sent, vector(packetBytes)"
vector 138  University.whttpStudents[1].tcpApp[0]  numActiveSessions:vector  ETV
attr interpolationmode  sample-hold
attr source  sum(connect)
attr title  "number of active sessions, vector"
vector 136  University.whttpStudents[1].tcpApp[0]  sentPk:vector(packetBytes)  ETV
attr interpolationmode  none
attr source  sentPk
attr title  "packets sent, vector(packetBytes)"
vector 135  University.whttpStudents[1].tcpApp[0]  rcvdPk:vector(packetBytes)  ETV
attr interpolationmode  none
attr source  rcvdPk
attr title  "packets received, vector(packetBytes)"
vector 137  University.whttpStudents[1].tcpApp[0]  endToEndDelay:vector  ETV
attr interpolationmode  none
attr source  messageAge(rcvdPk)
attr title  "end-to-end delay, vector"
attr unit  s
vector 234  University.whttpStudents[9].tcpApp[0]  numActiveSessions:vector  ETV
attr interpolationmode  sample-hold
attr source  sum(connect)
attr title  "number of active sessions, vector"
vector 232  University.whttpStudents[9].tcpApp[0]  sentPk:vector(packetBytes)  ETV
attr interpolationmode  none
attr source  sentPk
attr title  "packets sent, vector(packetBytes)"
vector 126  University.whttpStudents[0].tcpApp[0]  numActiveSessions:vector  ETV
attr interpolationmode  sample-hold
attr source  sum(connect)
attr title  "number of active sessions, vector"
vector 124  University.whttpStudents[0].tcpApp[0]  sentPk:vector(packetBytes)  ETV
attr interpolationmode  none
attr source  sentPk
attr title  "packets sent, vector(packetBytes)"
vector 162  University.whttpStudents[3].tcpApp[0]  numActiveSessions:vector  ETV
attr interpolationmode  sample-hold
attr source  sum(connect)
attr title  "number of active sessions, vector"
vector 160  University.whttpStudents[3].tcpApp[0]  sentPk:vector(packetBytes)  ETV
attr interpolationmode  none
attr source  sentPk
attr title  "packets sent, vector(packetBytes)"
vector 123  University.whttpStudents[0].tcpApp[0]  rcvdPk:vector(packetBytes)  ETV
attr interpolationmode  none
attr source  rcvdPk
attr title  "packets received, vector(packetBytes)"
vector 125  University.whttpStudents[0].tcpApp[0]  endToEndDelay:vector  ETV
attr interpolationmode  none
attr source  messageAge(rcvdPk)
attr title  "end-to-end delay, vector"
attr unit  s
vector 159  University.whttpStudents[3].tcpApp[0]  rcvdPk:vector(packetBytes)  ETV
attr interpolationmode  none
attr source  rcvdPk
attr title  "packets received, vector(packetBytes)"
vector 161  University.whttpStudents[3].tcpApp[0]  endToEndDelay:vector  ETV
attr interpolationmode  none
attr source  messageAge(rcvdPk)
attr title  "end-to-end delay, vector"
attr unit  s
vector 186  University.whttpStudents[5].tcpApp[0]  numActiveSessions:vector  ETV
attr interpolationmode  sample-hold
attr source  sum(connect)
attr title  "number of active sessions, vector"
vector 184  University.whttpStudents[5].tcpApp[0]  sentPk:vector(packetBytes)  ETV
attr interpolationmode  none
attr source  sentPk
attr title  "packets sent, vector(packetBytes)"
vector 183  University.whttpStudents[5].tcpApp[0]  rcvdPk:vector(packetBytes)  ETV
attr interpolationmode  none
attr source  rcvdPk
attr title  "packets received, vector(packetBytes)"
vector 185  University.whttpStudents[5].tcpApp[0]  endToEndDelay:vector  ETV
attr interpolationmode  none
attr source  messageAge(rcvdPk)
attr title  "end-to-end delay, vector"
attr unit  s
vector 150  University.whttpStudents[2].tcpApp[0]  numActiveSessions:vector  ETV
attr interpolationmode  sample-hold
attr source  sum(connect)
attr title  "number of active sessions, vector"
vector 148  University.whttpStudents[2].tcpApp[0]  sentPk:vector(packetBytes)  ETV
attr interpolationmode  none
attr source  sentPk
attr title  "packets sent, vector(packetBytes)"
vector 97  University.Server.tcpApp[1]  rcvdPk:vector(packetBytes)  ETV
attr interpolationmode  none
attr source  rcvdPk
attr title  "packets received, vector(packetBytes)"
vector 99  University.Server.tcpApp[1]  endToEndDelay:vector  ETV
attr interpolationmode  none
attr source  messageAge(rcvdPk)
attr title  "end-to-end delay, vector"
attr unit  s
vector 98  University.Server.tcpApp[1]  sentPk:vector(packetBytes)  ETV
attr interpolationmode  none
attr source  sentPk
attr title  "packets sent, vector(packetBytes)"
vector 259  University.whostFTP.tcpApp[0]  rcvdPk:vector(packetBytes)  ETV
attr interpolationmode  none
attr source  rcvdPk
attr title  "packets received, vector(packetBytes)"
vector 261  University.whostFTP.tcpApp[0]  endToEndDelay:vector  ETV
attr interpolationmode  none
attr source  messageAge(rcvdPk)
attr title  "end-to-end delay, vector"
attr unit  s
vector 198  University.whttpStudents[6].tcpApp[0]  numActiveSessions:vector  ETV
attr interpolationmode  sample-hold
attr source  sum(connect)
attr title  "number of active sessions, vector"
vector 196  University.whttpStudents[6].tcpApp[0]  sentPk:vector(packetBytes)  ETV
attr interpolationmode  none
attr source  sentPk
attr title  "packets sent, vector(packetBytes)"
vector 210  University.whttpStudents[7].tcpApp[0]  numActiveSessions:vector  ETV
attr interpolationmode  sample-hold
attr source  sum(connect)
attr title  "number of active sessions, vector"
vector 195  University.whttpStudents[6].tcpApp[0]  rcvdPk:vector(packetBytes)  ETV
attr interpolationmode  none
attr source  rcvdPk
attr title  "packets received, vector(packetBytes)"
vector 197  University.whttpStudents[6].tcpApp[0]  endToEndDelay:vector  ETV
attr interpolationmode  none
attr source  messageAge(rcvdPk)
attr title  "end-to-end delay, vector"
attr unit  s
vector 208  University.whttpStudents[7].tcpApp[0]  sentPk:vector(packetBytes)  ETV
attr interpolationmode  none
attr source  sentPk
attr title  "packets sent, vector(packetBytes)"
vector 207  University.whttpStudents[7].tcpApp[0]  rcvdPk:vector(packetBytes)  ETV
attr interpolationmode  none
attr source  rcvdPk
attr title  "packets received, vector(packetBytes)"
vector 209  University.whttpStudents[7].tcpApp[0]  endToEndDelay:vector  ETV
attr interpolationmode  none
attr source  messageAge(rcvdPk)
attr title  "end-to-end delay, vector"
attr unit  s
vector 219  University.whttpStudents[8].tcpApp[0]  rcvdPk:vector(packetBytes)  ETV
attr interpolationmode  none
attr source  rcvdPk
attr title  "packets received, vector(packetBytes)"
vector 221  University.whttpStudents[8].tcpApp[0]  endToEndDelay:vector  ETV
attr interpolationmode  none
attr source  messageAge(rcvdPk)
attr title  "end-to-end delay, vector"
attr unit  s
vector 147  University.whttpStudents[2].tcpApp[0]  rcvdPk:vector(packetBytes)  ETV
attr interpolationmode  none
attr source  rcvdPk
attr title  "packets received, vector(packetBytes)"
vector 149  University.whttpStudents[2].tcpApp[0]  endToEndDelay:vector  ETV
attr interpolationmode  none
attr source  messageAge(rcvdPk)
attr title  "end-to-end delay, vector"
attr unit  s
vector 174  University.whttpStudents[4].tcpApp[0]  numActiveSessions:vector  ETV
attr interpolationmode  sample-hold
attr source  sum(connect)
attr title  "number of active sessions, vector"
vector 172  University.whttpStudents[4].tcpApp[0]  sentPk:vector(packetBytes)  ETV
attr interpolationmode  none
attr source  sentPk
attr title  "packets sent, vector(packetBytes)"
vector 171  University.whttpStudents[4].tcpApp[0]  rcvdPk:vector(packetBytes)  ETV
attr interpolationmode  none
attr source  rcvdPk
attr title  "packets received, vector(packetBytes)"
vector 173  University.whttpStudents[4].tcpApp[0]  endToEndDelay:vector  ETV
attr interpolationmode  none
attr source  messageAge(rcvdPk)
attr title  "end-to-end delay, vector"
attr unit  s
vector 231  University.whttpStudents[9].tcpApp[0]  rcvdPk:vector(packetBytes)  ETV
attr interpolationmode  none
attr source  rcvdPk
attr title  "packets received, vector(packetBytes)"
vector 233  University.whttpStudents[9].tcpApp[0]  endToEndDelay:vector  ETV
attr interpolationmode  none
attr source  messageAge(rcvdPk)
attr title  "end-to-end delay, vector"
attr unit  s
75	10683 4033339 17525 411225422 1.068263909011 4553.051338264043 113826 1400 1400 159356400 223098960000
76	4044022 4039201 132 411225403 0.038741626599 4553.038741626599 113826 1400 1400 159356400 223098960000
77	8083223 5022922 17525 411225422 1.068263909011 4553.051338264043 113826 0.0163456283 1.033271273268 1950.165911575 43.627427769114
94	13106145 66721 27531 411218156 1.480347341942 4552.804952894382 2061 1 1 2061 2061
95	13172866 77330 27531 411218156 1.480347341942 4552.804952894382 2061 236 8020867 1664294519 2.7047701118132e+15
96	13250196 93317 27531 411218156 1.480347341942 4552.804952894382 2061 0.072818321663 0.089244444152 150.76548483702 11.030386513026
97	13343513 15879 1130148 410763497 14.415340217072 4544.046635171378 414 1048576 1048576 434110464 4.5519781389926e+14
98	13359392 13395 1130148 410763497 14.415340217072 4544.046635171378 414 1 1 414 414
99	13372787 18992 1130148 410763497 14.415340217072 4544.046635171378 414 2.739804858638 31.718196139889 4420.380504955 52492.822125098
123	13391779 7416 817966 410745053 11.182354470111 4543.940366723498 192 236 3458817 163617866 2.4497447284986e+14
124	13399195 6439 615762 411216107 7.194737813068 4552.732125502426 193 1 1 193 193
125	13405634 8958 817966 410745053 11.182354470111 4543.940366723498 192 0.083743685675 43.919318569734 1554.0134943312 27577.924417876
126	13414592 12859 613210 411214110 7.110583827685 4552.649547577335 385 0 1 193 193
135	13427451 8069 407876 409865352 4.887095906702 4535.984768446807 210 3464 3771580 168734626 2.8530211258538e+14
136	13435520 6998 328706 408483999 4.057887017302 4520.207721857546 210 1 1 210 210
137	13442518 9768 407876 409865352 4.887095906702 4535.984768446807 210 0.169868099292 52.408000452883 1476.4997112767 26914.987888116
138	13452286 13985 324971 409865352 3.973715067655 4535.984768446807 420 0 1 210 210
147	13466271 8018 2471883 410988480 30.412231770045 4545.572791072886 208 2575 4048294 160198001 2.4535954796203e+14
148	13474289 6950 1119811 410785786 14.286718786793 4544.577135941936 208 1 1 208 208
149	13481239 9696 2471883 410988480 30.412231770045 4545.572791072886 208 0.168664927627 47.943892146677 1451.3547524581 24642.819648353
150	13490935 13918 1111995 410988480 14.202537789974 4545.572791072886 416 0 1 208 208
159	13504853 7677 865070 410366309 12.130387765916 4541.616123429702 199 4614 4490851 168731392 2.9375813308309e+14
160	13512530 6642 656672 409872154 7.833427608052 4536.257617938357 199 1 1 199 199
161	13519172 9259 865070 410366309 12.130387765916 4541.616123429702 199 0.252133794489 32.390852803682 1475.5028535345 24846.004801022
162	13528431 13279 639676 410366309 7.721283868722 4541.616123429702 398 0 1 199 199
171	13541710 7859 2698629 409687406 32.285067061757 4531.663126902957 204 3223 4190544 153409213 2.3290727475488e+14
172	13549569 6816 2488736 408945696 30.930994753275 4524.648684620899 204 1 1 204 204
173	13556385 9490 2698629 409687406 32.285067061757 4531.663126902957 204 0.169840983316 31.356011006786 1437.5602256428 23885.405358386
174	13565875 13620 2485608 409687406 30.84626018057 4531.663126902957 408 0 1 204 204
183	13579495 8084 883660 407325025 12.585999487889 4503.045095980277 210 1841 3808017 165900532 2.5389368238843e+14
184	13587579 7031 869291 410391306 12.241362751736 4542.163049317167 211 1 1 211 211
185	13594610 9772 883660 407325025 12.585999487889 4503.045095980277 210 0.167968127174 56.455686849967 1506.1399516271 27227.686892617
186	13604382 14032 866209 410382846 12.157235772997 4542.080471395398 421 0 1 211 211
195	13618414 8741 1539013 410353083 18.749580575295 4541.101632275331 227 3191 4850043 170527204 2.7257948766839e+14
196	13627155 7580 1504806 410268018 18.220336991362 4540.31392167176 227 1 1 227 227
197	13634735 10563 1539013 410353083 18.749580575295 4541.101632275331 227 0.16989111966 31.625448770074 1375.6225077882 20494.448348947
198	13645298 15168 1502076 410353083 18.136183031531 4541.101632275331 454 0 1 227 227
207	13660466 8214 1680806 411105514 19.700649746348 4547.684847672907 213 3889 4408718 167948363 2.447253585637e+14
208	13668680 7113 1541347 409870464 18.775615586992 4536.230193583341 213 1 1 213 213
209	13675793 9926 1680806 411105514 19.700649746348 4547.684847672907 213 0.170015078204 36.79092585306 1538.0429872603 24056.402366006
210	13685719 14222 1529971 411105514 18.691443647889 4547.684847672907 426 0 1 213 213
219	13699941 7221 2337121 404012510 24.901460228217 4463.19492011623 188 3888 8020867 167062373 3.4876382814653e+14
220	13707162 6272 23557 403121933 1.407510972372 4452.619833759152 188 1 1 188 188
221	13713434 8751 2337121 404012510 24.901460228217 4463.19492011623 188 0.169955111068 45.644986531108 1470.5175305265 25619.727053718
222	13722185 12529 2234 404012510 0.322665538448 4463.19492011623 376 0 1 188 188
231	13734714 8002 2886580 409869050 33.568754494398 4536.159491513304 207 1899 6053402 173854042 2.7484011974452e+14
232	13742716 6948 413948 410084851 5.201997617079 4538.860229143335 208 1 1 208 208
233	13749664 9660 2886580 409869050 33.568754494398 4536.159491513304 207 0.168425435519 57.266597790187 1625.4409436993 29131.589546652
234	13759324 13872 412160 410083124 5.117825708332 4538.777651256562 415 0 1 208 208
243	13773196 4081634 11678 411224452 1.036435699011 4553.016844261115 111977 1400 1400 156767800 219474920000
244	17854830 4153027 122 411225270 0.034992635743 4553.034992635743 113826 1400 1400 159356400 223098960000
245	22007857 5046267 11678 411224452 1.036435699011 4553.016844261115 111977 0.016319328496 1.097119998429 2974.578646004 188.65324777479
259	27054124 13822 1131796 410765150 14.426464032512 4544.05946752894 414 1 1 414 414
260	27067946 16311 17934 410772126 1.084180991859 4544.22767900228 415 1048576 1048576 435159040 4.5629732552704e+14
261	27084257 19424 1131796 410765150 14.426464032512 4544.05946752894 414 2.769791939056 31.729044438465 4450.2417385553 53205.416597937
262	27103681 27658 53 410768946 0 4544.143814797375 829 0 1 415 415
75	27131339 761120 411227841 488559983 4553.094033240113 5399.981856868384 21172 1400 1400 29640800 41497120000
76	27892459 762264 411227606 488561124 4553.078741626599 5399.998741626599 21174 1400 1400 29643600 41501040000
77	28654723 945265 411227841 488559983 4553.094033240113 5399.981856868384 21172 0.0163456283 0.124259519439 360.80280450011 6.2806654246766
94	29599988 12194 411360019 488290457 4554.212836874159 5395.958071645426 371 1 1 371 371
95	29612182 14138 411360019 488290457 4554.212836874159 5395.958071645426 371 5338 4684315 316702511 4.8789743063552e+14
96	29626320 16984 411360019 488290457 4554.212836874159 5395.958071645426 371 0.072818321663 0.077484960733 27.129020458158 1.9839607701015
97	29643304 2794 411452284 487604903 4554.88767522542 5386.300891240669 72 1048576 1048576 75497472 79164837199872
98	29646098 2362 411452284 487604903 4554.88767522542 5386.300891240669 72 1 1 72 72
99	29648460 3339 411452284 487604903 4554.88767522542 5386.300891240669 72 2.024270430481 27.838890059511 828.11889550356 10707.612357214
123	29651799 1290 411722443 485906003 4559.01301942053 5374.879632949827 33 85900 4684315 31859414 67397188018640
124	29653089 1082 414743897 485795023 4588.747377330831 5374.011193972201 32 1 1 32 32
125	29654171 1548 411722443 485906003 4559.01301942053 5374.879632949827 33 0.592631269841 35.198020586153 264.74667329096 5131.2396413202
126	29655719 2201 411722443 485906003 4559.01301942053 5374.879632949827 65 0 1 32 32
135	29657920 1761 413988988 485914087 4581.11270249809 5374.955466301017 45 44803 2001033 29122726 30883364167354
136	29659681 1524 413905119 485402043 4580.46334736502 5370.241543132347 45 1 1 45 45
137	29661205 2115 413988988 485914087 4581.11270249809 5374.955466301017 45 0.511117788098 20.957622332898 255.14539138125 3318.7602708595
138	29663320 3051 413897586 485914087 4580.375536536852 5374.955466301017 90 0 1 45 45
147	29666371 1138 412308253 488008209 4564.280589582059 5390.243352463813 29 12089 3591331 27568683 46819056457707
148	29667509 985 412233174 487911920 4563.472626826903 5389.365224327406 29 1 1 29 29
149	29668494 1369 412308253 488008209 4564.280589582059 5390.243352463813 29 0.388404215825 28.444293352457 250.8825518573 4765.0107069433
150	29669863 1968 412231685 488008209 4563.390048896094 5390.243352463813 58 0 1 29 29
159	29671831 1568 413336314 487901285 4573.851415706062 5389.049774122949 40 24666 3761915 34745662 63629413170980
160	29673399 1356 412375948 485079096 4568.455472744878 5366.195242073464 40 1 1 40 40
161	29674755 1886 413336314 487901285 4573.851415706062 5389.049774122949 40 0.422877820821 24.844678395395 247.2040915218 4043.7748106837
162	29676641 2714 412374216 487901285 4568.372817785285 5389.049774122949 80 0 1 40 40
171	29679355 1598 414312809 488507775 4583.127990355602 5398.02493746061 41 23233 2947817 30776274 40074212855634
172	29680953 1391 411808513 488051033 4560.131131832611 5393.373363377311 41 1 1 41 41
173	29682344 1929 414312809 488507775 4583.127990355602 5398.02493746061 41 0.449149025134 22.996858522991 290.78613707292 4145.1063060277
174	29684273 2772 411803178 488507775 4560.046592190909 5398.02493746061 82 0 1 41 41
183	29687045 1528 412219828 486373976 4562.690054013422 5377.188607890888 39 16838 2715659 37938870 58159611085720
184	29688573 1324 412929938 488047115 4572.090035844167 5393.168777958539 39 1 1 39 39
185	29689897 1844 412219828 486373976 4562.690054013422 5377.188607890888 39 0.344828702736 37.461531429282 403.1070327843 7507.3544778614
186	29691741 2638 412219828 488045863 4562.690054013422 5393.08620003677 78 0 1 39 39
195	29694379 1329 411778735 487691587 4559.261167724762 5387.110638675522 34 5338 3240512 27945678 44585610461490
196	29695708 1154 411676357 486509946 4558.346612668546 5379.111927387189 34 1 1 34 34
197	29696862 1603 411778735 487691587 4559.261167724762 5387.110638675522 34 0.25283134446 26.568980737627 218.25833044409 3144.387883683
198	29698465 2308 411671978 487691587 4558.258631789307 5387.110638675522 68 0 1 34 34
207	29700773 1566 411641942 488375090 4556.260463110646 5396.711210384284 40 42459 2248274 31758055 42792737435321
208	29702339 1355 411503042 488285312 4555.531929248148 5395.88523528818 40 1 1 40 40
209	29703694 1881 411641942 488375090 4556.260463110646 5396.711210384284 40 0.436541936533 38.777665550641 295.70687321999 5530.7256879146
210	29705575 2712 411498944 488375090 4555.449351346197 5396.711210384284 80 0 1 40 40
219	29708287 1412 411489366 487136235 4555.046538668191 5383.889838071376 36 37597 3376941 32688490 50115853751186
220	29709699 1221 411357820 485964216 4554.139964504589 5375.237239780173 36 1 1 36 36
221	29710920 1698 411489366 487136235 4555.046538668191 5383.889838071376 36 0.431728532468 32.566912997283 302.48192542721 5210.6236715379
222	29712618 2440 411355387 487136235 4554.056199709054 5383.889838071376 72 0 1 36 36
231	29715058 1415 411388831 488289747 4554.622322270697 5395.942789655497 36 61032 3060823 35436878 49731280152574
232	29716473 1187 411664466 488254657 4557.916610494769 5395.336856873802 35 1 1 35 35
233	29717660 1704 411388831 488289747 4554.622322270697 5395.942789655497 36 0.517778752075 38.746727790841 338.33750943299 5437.1553802405
234	29719364 2408 411388831 488289747 4554.622322270697 5395.942789655497 71 0 1 35 35
243	29721772 769589 411225480 488559887 4553.055088694899 5399.975088694899 20821 1400 1400 29149400 40809160000
244	30491361 783438 411226855 488560537 4553.074992635743 5399.994992635743 21174 1400 1400 29643600 41501040000
245	31274799 949212 411225480 488559887 4553.055088694899 5399.975088694899 20821 0.016321191838 0.175119467949 552.50374797364 31.631985385035
259	32224011 2443 411473863 487606283 4554.978353010477 5386.312015056109 72 1 1 72 72
260	32226454 2869 411492598 487620575 4555.145321951059 5386.479454754531 72 1048576 1048576 75497472 79164837199872
261	32229323 3422 411473863 487606283 4554.978353010477 5386.312015056109 72 2.035127729057 27.849995874951 829.17480862575 10731.453787104
262	32232745 4877 411473863 487613671 4554.978353010477 5386.396115762672 144 0 1 72 72
