file 32430581 1471538259                                        
version 2
run _10off-4-20160818-18:12:15-21803
attr configname _10off
attr datetime 20160818-18:12:15
attr experiment _10off
attr inifile omnetpp.ini
attr iterationvars ""
attr iterationvars2 $repetition=4
attr measurement ""
attr network University
attr processid 21803
attr repetition 4
attr replication #4
attr resultdir /utmnt/ut/si/sinp1070
attr runnumber 4
attr seedset 4

vector 262  University.whostFTP.tcpApp[0]  numActiveSessions:vector  ETV
attr interpolationmode  sample-hold
attr source  sum(connect)
attr title  "number of active sessions, vector"
vector 244  University.whostVideoConf.udpApp[0]  sentPk:vector(packetBytes)  ETV
attr interpolationmode  none
attr source  sentPk
attr title  "packets sent, vector(packetBytes)"
vector 76  University.profLaptop.udpApp[0]  sentPk:vector(packetBytes)  ETV
attr interpolationmode  none
attr source  sentPk
attr title  "packets sent, vector(packetBytes)"
vector 162  University.whttpStudents[3].tcpApp[0]  numActiveSessions:vector  ETV
attr interpolationmode  sample-hold
attr source  sum(connect)
attr title  "number of active sessions, vector"
vector 234  University.whttpStudents[9].tcpApp[0]  numActiveSessions:vector  ETV
attr interpolationmode  sample-hold
attr source  sum(connect)
attr title  "number of active sessions, vector"
vector 243  University.whostVideoConf.udpApp[0]  rcvdPk:vector(packetBytes)  ETV
attr interpolationmode  none
attr source  rcvdPk
attr title  "packets received, vector(packetBytes)"
vector 245  University.whostVideoConf.udpApp[0]  rcvdPkLifetime:vector  ETV
attr interpolationmode  none
attr source  messageAge(rcvdPk)
attr title  "received packet lifetime, vector"
attr unit  s
vector 75  University.profLaptop.udpApp[0]  rcvdPk:vector(packetBytes)  ETV
attr interpolationmode  none
attr source  rcvdPk
attr title  "packets received, vector(packetBytes)"
vector 77  University.profLaptop.udpApp[0]  rcvdPkLifetime:vector  ETV
attr interpolationmode  none
attr source  messageAge(rcvdPk)
attr title  "received packet lifetime, vector"
attr unit  s
vector 260  University.whostFTP.tcpApp[0]  sentPk:vector(packetBytes)  ETV
attr interpolationmode  none
attr source  sentPk
attr title  "packets sent, vector(packetBytes)"
vector 160  University.whttpStudents[3].tcpApp[0]  sentPk:vector(packetBytes)  ETV
attr interpolationmode  none
attr source  sentPk
attr title  "packets sent, vector(packetBytes)"
vector 232  University.whttpStudents[9].tcpApp[0]  sentPk:vector(packetBytes)  ETV
attr interpolationmode  none
attr source  sentPk
attr title  "packets sent, vector(packetBytes)"
vector 94  University.Server.tcpApp[0]  rcvdPk:vector(packetBytes)  ETV
attr interpolationmode  none
attr source  rcvdPk
attr title  "packets received, vector(packetBytes)"
vector 96  University.Server.tcpApp[0]  endToEndDelay:vector  ETV
attr interpolationmode  none
attr source  messageAge(rcvdPk)
attr title  "end-to-end delay, vector"
attr unit  s
vector 95  University.Server.tcpApp[0]  sentPk:vector(packetBytes)  ETV
attr interpolationmode  none
attr source  sentPk
attr title  "packets sent, vector(packetBytes)"
vector 150  University.whttpStudents[2].tcpApp[0]  numActiveSessions:vector  ETV
attr interpolationmode  sample-hold
attr source  sum(connect)
attr title  "number of active sessions, vector"
vector 148  University.whttpStudents[2].tcpApp[0]  sentPk:vector(packetBytes)  ETV
attr interpolationmode  none
attr source  sentPk
attr title  "packets sent, vector(packetBytes)"
vector 147  University.whttpStudents[2].tcpApp[0]  rcvdPk:vector(packetBytes)  ETV
attr interpolationmode  none
attr source  rcvdPk
attr title  "packets received, vector(packetBytes)"
vector 149  University.whttpStudents[2].tcpApp[0]  endToEndDelay:vector  ETV
attr interpolationmode  none
attr source  messageAge(rcvdPk)
attr title  "end-to-end delay, vector"
attr unit  s
vector 231  University.whttpStudents[9].tcpApp[0]  rcvdPk:vector(packetBytes)  ETV
attr interpolationmode  none
attr source  rcvdPk
attr title  "packets received, vector(packetBytes)"
vector 233  University.whttpStudents[9].tcpApp[0]  endToEndDelay:vector  ETV
attr interpolationmode  none
attr source  messageAge(rcvdPk)
attr title  "end-to-end delay, vector"
attr unit  s
vector 222  University.whttpStudents[8].tcpApp[0]  numActiveSessions:vector  ETV
attr interpolationmode  sample-hold
attr source  sum(connect)
attr title  "number of active sessions, vector"
vector 220  University.whttpStudents[8].tcpApp[0]  sentPk:vector(packetBytes)  ETV
attr interpolationmode  none
attr source  sentPk
attr title  "packets sent, vector(packetBytes)"
vector 219  University.whttpStudents[8].tcpApp[0]  rcvdPk:vector(packetBytes)  ETV
attr interpolationmode  none
attr source  rcvdPk
attr title  "packets received, vector(packetBytes)"
vector 221  University.whttpStudents[8].tcpApp[0]  endToEndDelay:vector  ETV
attr interpolationmode  none
attr source  messageAge(rcvdPk)
attr title  "end-to-end delay, vector"
attr unit  s
vector 198  University.whttpStudents[6].tcpApp[0]  numActiveSessions:vector  ETV
attr interpolationmode  sample-hold
attr source  sum(connect)
attr title  "number of active sessions, vector"
vector 196  University.whttpStudents[6].tcpApp[0]  sentPk:vector(packetBytes)  ETV
attr interpolationmode  none
attr source  sentPk
attr title  "packets sent, vector(packetBytes)"
vector 195  University.whttpStudents[6].tcpApp[0]  rcvdPk:vector(packetBytes)  ETV
attr interpolationmode  none
attr source  rcvdPk
attr title  "packets received, vector(packetBytes)"
vector 197  University.whttpStudents[6].tcpApp[0]  endToEndDelay:vector  ETV
attr interpolationmode  none
attr source  messageAge(rcvdPk)
attr title  "end-to-end delay, vector"
attr unit  s
vector 138  University.whttpStudents[1].tcpApp[0]  numActiveSessions:vector  ETV
attr interpolationmode  sample-hold
attr source  sum(connect)
attr title  "number of active sessions, vector"
vector 136  University.whttpStudents[1].tcpApp[0]  sentPk:vector(packetBytes)  ETV
attr interpolationmode  none
attr source  sentPk
attr title  "packets sent, vector(packetBytes)"
vector 135  University.whttpStudents[1].tcpApp[0]  rcvdPk:vector(packetBytes)  ETV
attr interpolationmode  none
attr source  rcvdPk
attr title  "packets received, vector(packetBytes)"
vector 137  University.whttpStudents[1].tcpApp[0]  endToEndDelay:vector  ETV
attr interpolationmode  none
attr source  messageAge(rcvdPk)
attr title  "end-to-end delay, vector"
attr unit  s
vector 186  University.whttpStudents[5].tcpApp[0]  numActiveSessions:vector  ETV
attr interpolationmode  sample-hold
attr source  sum(connect)
attr title  "number of active sessions, vector"
vector 184  University.whttpStudents[5].tcpApp[0]  sentPk:vector(packetBytes)  ETV
attr interpolationmode  none
attr source  sentPk
attr title  "packets sent, vector(packetBytes)"
vector 159  University.whttpStudents[3].tcpApp[0]  rcvdPk:vector(packetBytes)  ETV
attr interpolationmode  none
attr source  rcvdPk
attr title  "packets received, vector(packetBytes)"
vector 161  University.whttpStudents[3].tcpApp[0]  endToEndDelay:vector  ETV
attr interpolationmode  none
attr source  messageAge(rcvdPk)
attr title  "end-to-end delay, vector"
attr unit  s
vector 183  University.whttpStudents[5].tcpApp[0]  rcvdPk:vector(packetBytes)  ETV
attr interpolationmode  none
attr source  rcvdPk
attr title  "packets received, vector(packetBytes)"
vector 185  University.whttpStudents[5].tcpApp[0]  endToEndDelay:vector  ETV
attr interpolationmode  none
attr source  messageAge(rcvdPk)
attr title  "end-to-end delay, vector"
attr unit  s
vector 126  University.whttpStudents[0].tcpApp[0]  numActiveSessions:vector  ETV
attr interpolationmode  sample-hold
attr source  sum(connect)
attr title  "number of active sessions, vector"
vector 124  University.whttpStudents[0].tcpApp[0]  sentPk:vector(packetBytes)  ETV
attr interpolationmode  none
attr source  sentPk
attr title  "packets sent, vector(packetBytes)"
vector 174  University.whttpStudents[4].tcpApp[0]  numActiveSessions:vector  ETV
attr interpolationmode  sample-hold
attr source  sum(connect)
attr title  "number of active sessions, vector"
vector 172  University.whttpStudents[4].tcpApp[0]  sentPk:vector(packetBytes)  ETV
attr interpolationmode  none
attr source  sentPk
attr title  "packets sent, vector(packetBytes)"
vector 97  University.Server.tcpApp[1]  rcvdPk:vector(packetBytes)  ETV
attr interpolationmode  none
attr source  rcvdPk
attr title  "packets received, vector(packetBytes)"
vector 99  University.Server.tcpApp[1]  endToEndDelay:vector  ETV
attr interpolationmode  none
attr source  messageAge(rcvdPk)
attr title  "end-to-end delay, vector"
attr unit  s
vector 98  University.Server.tcpApp[1]  sentPk:vector(packetBytes)  ETV
attr interpolationmode  none
attr source  sentPk
attr title  "packets sent, vector(packetBytes)"
vector 259  University.whostFTP.tcpApp[0]  rcvdPk:vector(packetBytes)  ETV
attr interpolationmode  none
attr source  rcvdPk
attr title  "packets received, vector(packetBytes)"
vector 261  University.whostFTP.tcpApp[0]  endToEndDelay:vector  ETV
attr interpolationmode  none
attr source  messageAge(rcvdPk)
attr title  "end-to-end delay, vector"
attr unit  s
vector 171  University.whttpStudents[4].tcpApp[0]  rcvdPk:vector(packetBytes)  ETV
attr interpolationmode  none
attr source  rcvdPk
attr title  "packets received, vector(packetBytes)"
vector 173  University.whttpStudents[4].tcpApp[0]  endToEndDelay:vector  ETV
attr interpolationmode  none
attr source  messageAge(rcvdPk)
attr title  "end-to-end delay, vector"
attr unit  s
vector 123  University.whttpStudents[0].tcpApp[0]  rcvdPk:vector(packetBytes)  ETV
attr interpolationmode  none
attr source  rcvdPk
attr title  "packets received, vector(packetBytes)"
vector 125  University.whttpStudents[0].tcpApp[0]  endToEndDelay:vector  ETV
attr interpolationmode  none
attr source  messageAge(rcvdPk)
attr title  "end-to-end delay, vector"
attr unit  s
vector 210  University.whttpStudents[7].tcpApp[0]  numActiveSessions:vector  ETV
attr interpolationmode  sample-hold
attr source  sum(connect)
attr title  "number of active sessions, vector"
vector 208  University.whttpStudents[7].tcpApp[0]  sentPk:vector(packetBytes)  ETV
attr interpolationmode  none
attr source  sentPk
attr title  "packets sent, vector(packetBytes)"
vector 207  University.whttpStudents[7].tcpApp[0]  rcvdPk:vector(packetBytes)  ETV
attr interpolationmode  none
attr source  rcvdPk
attr title  "packets received, vector(packetBytes)"
vector 209  University.whttpStudents[7].tcpApp[0]  endToEndDelay:vector  ETV
attr interpolationmode  none
attr source  messageAge(rcvdPk)
attr title  "end-to-end delay, vector"
attr unit  s
75	10683 4044939 17380 333360000 1.04411811292 4572.787004558652 114315 1400 1400 160041000 224057400000
76	4055622 4048725 128 333358811 0.021889290129 4572.781889290129 114320 1400 1400 160048000 224067200000
77	8104347 5184395 17380 333360000 1.04411811292 4572.787004558652 114315 0.016345607325 1.033459161593 1946.9202733297 43.360578444592
94	13288742 54246 22439 333327251 1.400422720745 4571.536080800684 1680 1 1 1680 1680
95	13342988 62923 22439 333327251 1.400422720745 4571.536080800684 1680 183 6817109 1378187665 2.2045724512272e+15
96	13405911 76062 22439 333327251 1.400422720745 4571.536080800684 1680 0.113174249211 0.132046695085 190.64892086856 21.637270933878
97	13481973 10923 2207248 332507760 37.008748659993 4562.562026115079 285 1048576 1048576 298844160 3.1336081391616e+14
98	13492896 9213 2207248 332507760 37.008748659993 4562.562026115079 285 1 1 285 285
99	13502109 13129 2207248 332507760 37.008748659993 4562.562026115079 285 3.463063976208 62.348540553953 4389.6132521055 80542.403405191
123	13515238 6572 2735645 332321673 41.10502019741 4560.014822535827 171 10723 5284354 130030190 2.0702502974891e+14
124	13521810 5732 1574451 332505769 29.223328178052 4562.459537135767 172 1 1 172 172
125	13527542 7954 2735645 332321673 41.10502019741 4560.014822535827 171 0.773803372195 75.962278661896 2040.0462915333 71125.954969032
126	13535496 11433 1571576 332468929 29.029696659559 4562.266380153687 343 0 1 172 172
135	13546929 5635 1218604 331293346 20.003413535574 4544.789110019163 146 517 3965449 120610064 1.7266210722994e+14
136	13552564 4868 1107182 328616999 18.139918095794 4510.813550095773 146 1 1 146 146
137	13557432 6811 1218604 331293346 20.003413535574 4544.789110019163 146 0.202602915316 61.677783314482 1761.8237969165 51029.544185779
138	13564243 9745 1104834 331293346 17.946460977684 4544.789110019163 292 0 1 146 146
147	13573988 6123 350067 333291844 4.293784391476 4570.71000484981 159 2006 3751485 139019070 2.2507708084697e+14
148	13580111 5283 77951 332929915 2.485156003156 4566.011316982013 159 1 1 159 159
149	13585394 7401 350067 333291844 4.293784391476 4570.71000484981 159 0.397621917497 75.018526845772 2090.554045751 70450.686011279
150	13592795 10585 51744 333291844 2.287903008964 4570.71000484981 318 0 1 159 159
159	13603380 7088 1288954 333362468 22.917548571641 4572.797889356463 184 647 6207816 148427965 2.4478304026555e+14
160	13610468 6121 20579 333324811 1.287194391053 4571.422861470992 184 1 1 184 184
161	13616589 8521 1288954 332191622 22.917548571641 4558.261344282803 183 0.193183973983 64.551767518276 1950.5652629495 54017.470947123
162	13625110 12232 228 333320817 0.093746190403 4571.230998343754 367 0 1 184 184
171	13637342 6197 2658210 329895929 40.476539909389 4522.469056622705 161 3230 4317179 146687973 2.6193180258342e+14
172	13643539 5395 1992751 331689123 35.216736245059 4551.50710497275 162 1 1 162 162
173	13648934 7490 2658210 329895929 40.476539909389 4522.469056622705 161 0.393325705359 73.498183198268 2124.6466550119 69924.913480096
174	13656424 10757 1983323 331671497 35.023297106685 4551.311066723993 323 0 1 162 162
183	13667181 6724 1391509 332290159 24.707556242608 4559.599709196339 175 411 4056914 131551344 1.9374873744474e+14
184	13673905 5828 1286595 332180860 22.863358746974 4557.992326132348 175 1 1 175 175
185	13679733 8130 1391509 332290159 24.707556242608 4559.599709196339 175 0.1930657531 50.63304917115 1924.8551247084 57743.838859394
186	13687863 11654 1280314 332290159 22.669901653632 4559.599709196339 350 0 1 175 175
195	13699517 6305 981505 332497613 14.749212583952 4562.390988239693 164 183 6817109 135806950 2.3272440528941e+14
196	13705822 5457 839457 332355613 12.935437537721 4560.712786326421 164 1 1 164 164
197	13711279 7625 981505 332497613 14.749212583952 4562.390988239693 164 0.193784328566 48.217918557415 1816.9479705764 48064.045271865
198	13718904 10913 819057 332497613 12.741980329155 4562.390988239693 328 0 1 164 164
207	13729817 6303 4202305 333322949 63.276537567914 4571.258357647592 163 5845 4929255 149844634 2.7238918726638e+14
208	13736120 5444 4131520 332524777 61.669363393419 4563.354639226864 163 1 1 163 163
209	13741564 7608 4202305 333322949 63.276537567914 4571.258357647592 163 0.583065633997 78.401815097079 2281.7248310497 76968.254694182
210	13749172 10890 4128146 333322949 61.475897235917 4571.258357647592 326 0 1 163 163
219	13760062 6657 476321 329088752 9.023904786734 4515.072350315234 174 1381 3428569 135203987 2.0027650936896e+14
220	13766719 5805 441859 331359834 7.651387006622 4548.031115192128 175 1 1 175 175
221	13772524 8066 476321 329088752 9.023904786734 4515.072350315234 174 0.193940182536 77.095550981295 2068.8773788322 65632.177300946
222	13780590 11576 439241 331357641 7.457938858888 4547.839252091348 349 0 1 175 175
231	13792166 6909 435977 333241126 7.199294859067 4569.727585292824 180 5731 3599290 135125247 1.8197682521476e+14
232	13799075 5979 21251 330443246 1.328857835506 4532.414737488218 180 1 1 180 180
233	13805054 8372 435977 333241126 7.199294859067 4569.727585292824 180 0.582088926142 73.224263488768 1908.9767613415 53533.774636263
234	13813426 11971 635 333241126 0.13540069448 4569.727585292824 360 0 1 180 180
243	13825397 4113176 11514 333357635 1.012137972645 4572.758236337454 113035 1400 1400 158249000 221548600000
244	17938573 4163044 118 333357749 0.010658951327 4572.770658951327 114320 1400 1400 160048000 224067200000
245	22101617 5240288 11514 333357635 1.012137972645 4572.758236337454 113035 0.016323268269 0.990248682516 2790.7820276388 152.88609487987
259	27341905 9456 2609062 332512015 40.091469170791 4562.64209720211 285 1 1 285 285
260	27351361 11239 19519 332517907 1.193466181382 4563.027681521986 286 1048576 1048576 299892736 3.1446032554394e+14
261	27362600 13373 2609062 332512015 40.091469170791 4562.64209720211 285 3.684675833021 62.428638640984 4435.2739280703 82086.827996378
262	27375973 18953 53 332514901 0 4562.835093340604 571 0 1 286 286
75	27394926 743865 333364041 391981694 4572.827004558652 5399.987004558652 20680 1400 1400 28952000 40532800000
76	28138791 744480 333363820 391981676 4572.821889290129 5399.981889290129 20680 1400 1400 28952000 40532800000
77	28883271 950002 333364041 391981694 4572.827004558652 5399.987004558652 20680 0.016345607325 0.086482933231 348.62345671054 5.9563529940767
94	29833273 10927 333375698 391609258 4573.743215674997 5396.045978362185 332 1 1 332 332
95	29844200 12632 333375698 391609258 4573.743215674997 5396.045978362185 332 184 3581536 240324146 3.018251782005e+14
96	29856832 15238 333375698 391609258 4573.743215674997 5396.045978362185 332 0.113174249211 0.131347438508 37.690519325568 4.2795750102368
97	29872070 1981 333842734 390519771 4583.975117688225 5375.000815019481 51 1048576 1048576 53477376 56075093016576
98	29874051 1675 333842734 390519771 4583.975117688225 5375.000815019481 51 1 1 51 51
99	29875726 2379 333842734 390519771 4583.975117688225 5375.000815019481 51 5.654768130248 54.211181694819 784.95163635898 14369.562065143
123	29878105 1211 335938101 390966657 4605.976660628991 5383.182876922208 31 30390 2356963 23343651 29600024943803
124	29879316 1016 336196291 390817326 4609.926559476834 5380.667904795237 30 1 1 30 30
125	29880332 1459 335938101 390966657 4605.976660628991 5383.182876922208 31 0.973779718412 44.264316420097 335.94414854994 9809.8498469191
126	29881791 2063 335938101 390966657 4605.976660628991 5383.182876922208 61 0 1 30 30
135	29883854 1288 334985854 390894807 4599.241296583979 5382.262017476958 33 94672 3033526 23415862 29646135247722
136	29885142 1154 334903831 391072873 4597.822092109917 5386.508444874746 34 1 1 34 34
137	29886296 1556 334985854 390894807 4599.241296583979 5382.262017476958 33 1.361696207273 37.058135028213 349.70645833722 8378.1532452739
138	29887852 2270 334900919 391070573 4597.630229023949 5386.315792219538 67 0 1 34 34
147	29890122 1633 333570945 389717542 4576.657246020637 5364.655917860143 42 28689 3581536 27026054 38573781532710
148	29891755 1454 333423811 390045205 4574.978977024804 5368.18471077146 43 1 1 43 43
149	29893209 1974 333570945 389717542 4576.657246020637 5364.655917860143 42 0.972337789502 40.937287092315 254.75471568741 5268.6872805031
150	29895183 2884 333405066 390033557 4574.787113930924 5367.99284767758 85 0 1 43 43
159	29898067 978 336049882 387273798 4607.582490618622 5324.690284391668 25 8749 2696917 21024319 27203740856557
160	29899045 880 335964805 391608223 4606.417086590195 5395.932768032493 26 1 1 26 26
161	29899925 1232 333362468 387273798 4572.797889356463 5324.690284391668 26 0.583189741868 52.86463665677 391.70010637988 11661.897335285
162	29901157 1765 333362468 391605656 4572.797889356463 5395.740904905255 52 0 1 26 26
171	29902922 1563 334105372 388906226 4588.708624879811 5354.411921026326 40 3700 1987409 23286737 24541434447467
172	29904485 1320 334128498 386924726 4590.764815890657 5319.373721504026 39 1 1 39 39
173	29905805 1882 334105372 388906226 4588.708624879811 5354.411921026326 40 0.402864757441 41.339717258218 356.83369658016 9170.9375485364
174	29907687 2679 334105372 388906226 4588.708624879811 5354.411921026326 79 0 1 39 39
183	29910366 1017 334886214 391594363 4596.682583687359 5394.925861811257 26 18057 2103825 20034021 23986062011777
184	29911383 883 334355896 391423182 4592.933362648271 5391.19990637775 26 1 1 26 26
185	29912266 1224 334886214 391594363 4596.682583687359 5394.925861811257 26 0.779737246937 43.624901079621 341.48383606979 9838.4140190475
186	29913490 1761 334303041 391594363 4592.703667328858 5394.925861811257 52 0 1 26 26
195	29915251 1521 333496417 390999558 4575.377874641004 5384.346013454537 39 22526 1646454 25221073 23658186259667
196	29916772 1324 333374553 390526440 4573.629996339368 5375.462429732253 39 1 1 39 39
197	29918096 1837 333496417 390999558 4575.377874641004 5384.346013454537 39 1.096515056369 36.072743380204 346.54210274079 7033.5485519788
198	29919933 2640 333371656 390999558 4573.436919290802 5384.346013454537 78 0 1 39 39
207	29922573 1130 335319052 388371897 4601.017845713189 5347.449895151884 29 5249 3123007 20760865 29183559960235
208	29923703 1016 334960631 389277585 4599.069268569961 5360.301307375698 30 1 1 30 30
209	29924719 1364 335319052 388371897 4601.017845713189 5347.449895151884 29 0.580619355495 45.934756531728 288.74231799336 7579.3597434996
210	29926083 1999 334936282 389275342 4598.873904013335 5360.109444270034 59 0 1 30 30
219	29928082 1214 333943983 391059252 4585.990873736791 5385.361851981986 31 49437 2342663 25979044 36004783538092
220	29929296 1014 335500968 390988079 4602.777570446901 5384.123988303946 30 1 1 30 30
221	29930310 1460 333943983 391059252 4585.990873736791 5385.361851981986 31 1.222352675772 39.288385059462 413.77566750838 12014.42414061
222	29931770 2065 333943983 391059252 4585.990873736791 5385.361851981986 61 0 1 30 30
231	29933835 1364 333494112 391038006 4575.334898340571 5384.750284350377 35 184 2586683 28946072 38351183458644
232	29935199 1188 333375768 390965872 4573.753543737521 5383.127196210302 35 1 1 35 35
233	29936387 1651 333494112 391038006 4575.334898340571 5384.750284350377 35 0.193002824626 73.22786899334 369.07965823532 11615.423652389
234	29938038 2372 333372748 391038006 4573.561680640095 5384.750284350377 70 0 1 35 35
243	29940410 755771 333362800 391981729 4572.79930847724 5399.998236337454 20441 1400 1400 28617400 40064360000
244	30696181 765160 333363004 391981558 4572.810658951327 5399.970658951327 20680 1400 1400 28952000 40532800000
245	31461341 959608 333362800 391981729 4572.79930847724 5399.998236337454 20441 0.016328972247 0.175449126573 504.73496151763 26.013548239499
259	32420949 1721 333844431 390520800 4584.054886258144 5375.0806015894 51 1 1 51 51
260	32422670 2033 333849941 390526784 4584.44167396051 5375.466194909276 51 1048576 1048576 53477376 56075093016576
261	32424703 2425 333844431 390520800 4584.054886258144 5375.0806015894 51 5.736182613448 54.292085495448 789.34531940762 14505.347047641
262	32427128 3453 333844431 390523678 4584.054886258144 5375.273588727894 102 0 1 51 51
