file 32140799 1471539263                                        
version 2
run _10off-6-20160818-18:25:57-22014
attr configname _10off
attr datetime 20160818-18:25:57
attr experiment _10off
attr inifile omnetpp.ini
attr iterationvars ""
attr iterationvars2 $repetition=6
attr measurement ""
attr network University
attr processid 22014
attr repetition 6
attr replication #6
attr resultdir /utmnt/ut/si/sinp1070
attr runnumber 6
attr seedset 6

vector 262  University.whostFTP.tcpApp[0]  numActiveSessions:vector  ETV
attr interpolationmode  sample-hold
attr source  sum(connect)
attr title  "number of active sessions, vector"
vector 76  University.profLaptop.udpApp[0]  sentPk:vector(packetBytes)  ETV
attr interpolationmode  none
attr source  sentPk
attr title  "packets sent, vector(packetBytes)"
vector 244  University.whostVideoConf.udpApp[0]  sentPk:vector(packetBytes)  ETV
attr interpolationmode  none
attr source  sentPk
attr title  "packets sent, vector(packetBytes)"
vector 126  University.whttpStudents[0].tcpApp[0]  numActiveSessions:vector  ETV
attr interpolationmode  sample-hold
attr source  sum(connect)
attr title  "number of active sessions, vector"
vector 243  University.whostVideoConf.udpApp[0]  rcvdPk:vector(packetBytes)  ETV
attr interpolationmode  none
attr source  rcvdPk
attr title  "packets received, vector(packetBytes)"
vector 245  University.whostVideoConf.udpApp[0]  rcvdPkLifetime:vector  ETV
attr interpolationmode  none
attr source  messageAge(rcvdPk)
attr title  "received packet lifetime, vector"
attr unit  s
vector 75  University.profLaptop.udpApp[0]  rcvdPk:vector(packetBytes)  ETV
attr interpolationmode  none
attr source  rcvdPk
attr title  "packets received, vector(packetBytes)"
vector 77  University.profLaptop.udpApp[0]  rcvdPkLifetime:vector  ETV
attr interpolationmode  none
attr source  messageAge(rcvdPk)
attr title  "received packet lifetime, vector"
attr unit  s
vector 124  University.whttpStudents[0].tcpApp[0]  sentPk:vector(packetBytes)  ETV
attr interpolationmode  none
attr source  sentPk
attr title  "packets sent, vector(packetBytes)"
vector 260  University.whostFTP.tcpApp[0]  sentPk:vector(packetBytes)  ETV
attr interpolationmode  none
attr source  sentPk
attr title  "packets sent, vector(packetBytes)"
vector 94  University.Server.tcpApp[0]  rcvdPk:vector(packetBytes)  ETV
attr interpolationmode  none
attr source  rcvdPk
attr title  "packets received, vector(packetBytes)"
vector 96  University.Server.tcpApp[0]  endToEndDelay:vector  ETV
attr interpolationmode  none
attr source  messageAge(rcvdPk)
attr title  "end-to-end delay, vector"
attr unit  s
vector 95  University.Server.tcpApp[0]  sentPk:vector(packetBytes)  ETV
attr interpolationmode  none
attr source  sentPk
attr title  "packets sent, vector(packetBytes)"
vector 150  University.whttpStudents[2].tcpApp[0]  numActiveSessions:vector  ETV
attr interpolationmode  sample-hold
attr source  sum(connect)
attr title  "number of active sessions, vector"
vector 138  University.whttpStudents[1].tcpApp[0]  numActiveSessions:vector  ETV
attr interpolationmode  sample-hold
attr source  sum(connect)
attr title  "number of active sessions, vector"
vector 148  University.whttpStudents[2].tcpApp[0]  sentPk:vector(packetBytes)  ETV
attr interpolationmode  none
attr source  sentPk
attr title  "packets sent, vector(packetBytes)"
vector 136  University.whttpStudents[1].tcpApp[0]  sentPk:vector(packetBytes)  ETV
attr interpolationmode  none
attr source  sentPk
attr title  "packets sent, vector(packetBytes)"
vector 147  University.whttpStudents[2].tcpApp[0]  rcvdPk:vector(packetBytes)  ETV
attr interpolationmode  none
attr source  rcvdPk
attr title  "packets received, vector(packetBytes)"
vector 149  University.whttpStudents[2].tcpApp[0]  endToEndDelay:vector  ETV
attr interpolationmode  none
attr source  messageAge(rcvdPk)
attr title  "end-to-end delay, vector"
attr unit  s
vector 135  University.whttpStudents[1].tcpApp[0]  rcvdPk:vector(packetBytes)  ETV
attr interpolationmode  none
attr source  rcvdPk
attr title  "packets received, vector(packetBytes)"
vector 137  University.whttpStudents[1].tcpApp[0]  endToEndDelay:vector  ETV
attr interpolationmode  none
attr source  messageAge(rcvdPk)
attr title  "end-to-end delay, vector"
attr unit  s
vector 198  University.whttpStudents[6].tcpApp[0]  numActiveSessions:vector  ETV
attr interpolationmode  sample-hold
attr source  sum(connect)
attr title  "number of active sessions, vector"
vector 196  University.whttpStudents[6].tcpApp[0]  sentPk:vector(packetBytes)  ETV
attr interpolationmode  none
attr source  sentPk
attr title  "packets sent, vector(packetBytes)"
vector 162  University.whttpStudents[3].tcpApp[0]  numActiveSessions:vector  ETV
attr interpolationmode  sample-hold
attr source  sum(connect)
attr title  "number of active sessions, vector"
vector 160  University.whttpStudents[3].tcpApp[0]  sentPk:vector(packetBytes)  ETV
attr interpolationmode  none
attr source  sentPk
attr title  "packets sent, vector(packetBytes)"
vector 186  University.whttpStudents[5].tcpApp[0]  numActiveSessions:vector  ETV
attr interpolationmode  sample-hold
attr source  sum(connect)
attr title  "number of active sessions, vector"
vector 184  University.whttpStudents[5].tcpApp[0]  sentPk:vector(packetBytes)  ETV
attr interpolationmode  none
attr source  sentPk
attr title  "packets sent, vector(packetBytes)"
vector 195  University.whttpStudents[6].tcpApp[0]  rcvdPk:vector(packetBytes)  ETV
attr interpolationmode  none
attr source  rcvdPk
attr title  "packets received, vector(packetBytes)"
vector 197  University.whttpStudents[6].tcpApp[0]  endToEndDelay:vector  ETV
attr interpolationmode  none
attr source  messageAge(rcvdPk)
attr title  "end-to-end delay, vector"
attr unit  s
vector 174  University.whttpStudents[4].tcpApp[0]  numActiveSessions:vector  ETV
attr interpolationmode  sample-hold
attr source  sum(connect)
attr title  "number of active sessions, vector"
vector 210  University.whttpStudents[7].tcpApp[0]  numActiveSessions:vector  ETV
attr interpolationmode  sample-hold
attr source  sum(connect)
attr title  "number of active sessions, vector"
vector 172  University.whttpStudents[4].tcpApp[0]  sentPk:vector(packetBytes)  ETV
attr interpolationmode  none
attr source  sentPk
attr title  "packets sent, vector(packetBytes)"
vector 208  University.whttpStudents[7].tcpApp[0]  sentPk:vector(packetBytes)  ETV
attr interpolationmode  none
attr source  sentPk
attr title  "packets sent, vector(packetBytes)"
vector 207  University.whttpStudents[7].tcpApp[0]  rcvdPk:vector(packetBytes)  ETV
attr interpolationmode  none
attr source  rcvdPk
attr title  "packets received, vector(packetBytes)"
vector 209  University.whttpStudents[7].tcpApp[0]  endToEndDelay:vector  ETV
attr interpolationmode  none
attr source  messageAge(rcvdPk)
attr title  "end-to-end delay, vector"
attr unit  s
vector 123  University.whttpStudents[0].tcpApp[0]  rcvdPk:vector(packetBytes)  ETV
attr interpolationmode  none
attr source  rcvdPk
attr title  "packets received, vector(packetBytes)"
vector 125  University.whttpStudents[0].tcpApp[0]  endToEndDelay:vector  ETV
attr interpolationmode  none
attr source  messageAge(rcvdPk)
attr title  "end-to-end delay, vector"
attr unit  s
vector 222  University.whttpStudents[8].tcpApp[0]  numActiveSessions:vector  ETV
attr interpolationmode  sample-hold
attr source  sum(connect)
attr title  "number of active sessions, vector"
vector 220  University.whttpStudents[8].tcpApp[0]  sentPk:vector(packetBytes)  ETV
attr interpolationmode  none
attr source  sentPk
attr title  "packets sent, vector(packetBytes)"
vector 219  University.whttpStudents[8].tcpApp[0]  rcvdPk:vector(packetBytes)  ETV
attr interpolationmode  none
attr source  rcvdPk
attr title  "packets received, vector(packetBytes)"
vector 221  University.whttpStudents[8].tcpApp[0]  endToEndDelay:vector  ETV
attr interpolationmode  none
attr source  messageAge(rcvdPk)
attr title  "end-to-end delay, vector"
attr unit  s
vector 159  University.whttpStudents[3].tcpApp[0]  rcvdPk:vector(packetBytes)  ETV
attr interpolationmode  none
attr source  rcvdPk
attr title  "packets received, vector(packetBytes)"
vector 161  University.whttpStudents[3].tcpApp[0]  endToEndDelay:vector  ETV
attr interpolationmode  none
attr source  messageAge(rcvdPk)
attr title  "end-to-end delay, vector"
attr unit  s
vector 97  University.Server.tcpApp[1]  rcvdPk:vector(packetBytes)  ETV
attr interpolationmode  none
attr source  rcvdPk
attr title  "packets received, vector(packetBytes)"
vector 99  University.Server.tcpApp[1]  endToEndDelay:vector  ETV
attr interpolationmode  none
attr source  messageAge(rcvdPk)
attr title  "end-to-end delay, vector"
attr unit  s
vector 98  University.Server.tcpApp[1]  sentPk:vector(packetBytes)  ETV
attr interpolationmode  none
attr source  sentPk
attr title  "packets sent, vector(packetBytes)"
vector 234  University.whttpStudents[9].tcpApp[0]  numActiveSessions:vector  ETV
attr interpolationmode  sample-hold
attr source  sum(connect)
attr title  "number of active sessions, vector"
vector 259  University.whostFTP.tcpApp[0]  rcvdPk:vector(packetBytes)  ETV
attr interpolationmode  none
attr source  rcvdPk
attr title  "packets received, vector(packetBytes)"
vector 261  University.whostFTP.tcpApp[0]  endToEndDelay:vector  ETV
attr interpolationmode  none
attr source  messageAge(rcvdPk)
attr title  "end-to-end delay, vector"
attr unit  s
vector 232  University.whttpStudents[9].tcpApp[0]  sentPk:vector(packetBytes)  ETV
attr interpolationmode  none
attr source  sentPk
attr title  "packets sent, vector(packetBytes)"
vector 231  University.whttpStudents[9].tcpApp[0]  rcvdPk:vector(packetBytes)  ETV
attr interpolationmode  none
attr source  rcvdPk
attr title  "packets received, vector(packetBytes)"
vector 233  University.whttpStudents[9].tcpApp[0]  endToEndDelay:vector  ETV
attr interpolationmode  none
attr source  messageAge(rcvdPk)
attr title  "end-to-end delay, vector"
attr unit  s
vector 171  University.whttpStudents[4].tcpApp[0]  rcvdPk:vector(packetBytes)  ETV
attr interpolationmode  none
attr source  rcvdPk
attr title  "packets received, vector(packetBytes)"
vector 173  University.whttpStudents[4].tcpApp[0]  endToEndDelay:vector  ETV
attr interpolationmode  none
attr source  messageAge(rcvdPk)
attr title  "end-to-end delay, vector"
attr unit  s
vector 183  University.whttpStudents[5].tcpApp[0]  rcvdPk:vector(packetBytes)  ETV
attr interpolationmode  none
attr source  rcvdPk
attr title  "packets received, vector(packetBytes)"
vector 185  University.whttpStudents[5].tcpApp[0]  endToEndDelay:vector  ETV
attr interpolationmode  none
attr source  messageAge(rcvdPk)
attr title  "end-to-end delay, vector"
attr unit  s
75	10683 4045937 17646 334005684 1.060455073905 4574.443485758629 114361 1400 1400 160105400 224147560000
76	4056620 4049406 58 334005751 0.013279192177 4574.453279192177 114362 1400 1400 160106800 224149520000
77	8106026 5186091 17646 334005684 1.060455073905 4574.443485758629 114361 0.016345602729 1.033314918005 1946.7046635197 43.217993201358
94	13292117 53296 20135 333855561 1.251227414643 4573.646632572223 1650 1 1 1650 1650
95	13345413 61803 20135 333855561 1.251227414643 4573.646632572223 1650 32 6760042 1348636665 2.2897056131636e+15
96	13407216 74562 20135 333855561 1.251227414643 4573.646632572223 1650 0.077818280245 0.093813167803 128.85786458246 10.064735130832
97	13481778 11959 1604839 333079895 25.665859011562 4568.085273772274 312 1048576 1048576 327155712 3.4304762786611e+14
98	13493737 10087 1604839 333079895 25.665859011562 4568.085273772274 312 1 1 312 312
99	13503824 14352 1604839 333079895 25.665859011562 4568.085273772274 312 3.857513294723 40.631435385761 4398.2420238221 72918.206554885
123	13518176 5577 941375 332939651 17.046955050353 4565.080307681406 145 7460 5510847 145438757 2.9371607318155e+14
124	13523753 4857 18962 332975513 1.173382070219 4566.776129471784 146 1 1 146 146
125	13528610 6741 941375 332939651 17.046955050353 4565.080307681406 145 0.534991519111 110.9074287326 2269.1877310375 87181.230207568
126	13535351 9667 10682 332972582 0.996177837916 4566.600492297275 291 0 1 146 146
135	13545018 6758 335476 331419575 6.63649987795 4549.673237047259 176 14273 4059765 136739076 2.0177475154577e+14
136	13551776 5850 32732 331281319 1.892921878369 4548.59658773963 176 1 1 176 176
137	13557626 8180 335476 331419575 6.63649987795 4549.673237047259 176 0.711892408192 53.317665811843 1839.7427253847 50192.911905081
138	13565806 11689 26380 331419575 1.708564926579 4549.673237047259 352 0 1 176 176
147	13577495 6090 326273 332450062 6.303778098892 4556.39819155447 158 32 6760042 129511765 2.2141821874755e+14
148	13583585 5270 29077 330254688 1.750028273942 4541.004592775826 158 1 1 158 158
149	13588855 7364 326273 332450062 6.303778098892 4556.39819155447 158 0.177597088607 65.10146350058 1922.2126505098 62271.026313989
150	13596219 10544 24360 332450062 1.571605126626 4556.39819155447 316 0 1 158 158
159	13606763 6006 1426746 331304932 22.91067604568 4548.738683918868 156 4243 6036375 133344612 2.3968612292069e+14
160	13612769 5229 357960 331368518 8.317301126663 4549.341361239441 157 1 1 157 157
161	13617998 7263 1426746 331304932 22.91067604568 4548.738683918868 156 0.356976363781 84.672272271172 1856.1248168325 59341.847814657
162	13625261 10419 353575 331346695 8.140096979932 4549.157334007288 313 0 1 157 157
171	13635680 6517 3710244 333313095 43.288518223158 4569.25336943763 169 132 4643071 155659241 2.9872590495386e+14
172	13642197 5674 610992 333369419 13.078779660697 4569.741440008484 170 1 1 170 170
173	13647871 7891 3710244 333313095 43.288518223158 4569.25336943763 169 0.176763823711 83.211186542237 2304.5189462905 81636.006518791
174	13655762 11317 460141 333346765 9.890833110378 4569.561646663481 339 0 1 170 170
183	13667079 6372 4099438 332971638 46.714654615134 4566.572250812477 165 1720 3954597 130477347 1.9212623899909e+14
184	13673451 5508 376787 332956643 8.8247897137 4565.68417966433 165 1 1 165 165
185	13678959 7709 4099438 332971638 46.714654615134 4566.572250812477 165 0.353993572533 70.23088711572 1779.5680506644 51153.21029038
186	13686668 11035 366045 332971638 8.647576504249 4566.572250812477 330 0 1 165 165
195	13697703 6594 377827 333629035 8.83490234324 4571.344469689881 172 1955 5741321 127128162 2.0495456848676e+14
196	13704297 5722 346312 333007413 7.591084509109 4567.634698125071 172 1 1 172 172
197	13710019 7988 377827 333629035 8.83490234324 4571.344469689881 172 0.35418783914 112.35945383302 1847.9105105798 70505.471082709
198	13718007 11442 343964 333629035 7.413844299698 4571.344469689881 344 0 1 172 172
207	13729449 6352 685313 333064981 14.424281626529 4567.967629745543 165 4825 4524566 127669551 2.0770740828595e+14
208	13735801 5531 611895 333839397 13.150073258368 4573.568814262293 166 1 1 166 166
209	13741332 7689 685313 333064981 14.424281626529 4567.967629745543 165 0.531517969336 82.531440906537 1832.2402098967 59741.403224701
210	13749021 11039 608371 333802597 12.971799711272 4573.39317711078 331 0 1 166 166
219	13760060 6410 1179660 332666434 21.201793638025 4559.55769824702 167 18490 4516628 125585119 1.7976981152344e+14
220	13766470 5583 1058137 333748436 19.505396698813 4571.990037265906 168 1 1 168 168
221	13772053 7759 1179660 332666434 21.201793638025 4559.55769824702 167 0.715894992764 70.265125994484 1865.9026452456 55614.721717455
222	13779812 11132 1055767 333740707 19.32819248235 4571.812288565414 335 0 1 168 168
231	13790944 6568 3473639 329237294 39.768585523347 4526.824792539651 171 1341 4992844 124886081 2.1383288176807e+14
232	13797512 5743 1626427 329888957 25.887404435729 4538.912849493196 172 1 1 172 172
233	13803255 7968 3473639 329237294 39.768585523347 4526.824792539651 171 0.17765876797 80.022016444314 1674.4029470705 50608.895834189
234	13811223 11441 1611579 329880982 25.710164147758 4538.727637842978 343 0 1 172 172
243	13822664 4109281 11875 334005503 1.028619168026 4574.429626234906 112963 1400 1400 158148200 221407480000
244	17931945 3935010 74 334005338 0.0271401559 4574.4271401559 114361 1400 1400 160105400 224147560000
245	21866955 5235519 11875 334005503 1.028619168026 4574.429626234906 112963 0.016319498325 1.015339975849 2761.5632146956 149.55181334149
259	27102474 10396 1613411 333097391 25.764793607069 4568.217907615813 312 1 1 312 312
260	27112870 12319 19316 333220145 1.177240245415 4568.786048837074 313 1048576 1048576 328204288 3.4414713949389e+14
261	27125189 14654 1613411 333097391 25.764793607069 4568.217907615813 312 3.956723407914 40.730378981268 4436.5903245301 74017.92467329
262	27139843 20804 53 333143551 0 4568.46782093667 625 0 1 313 313
75	27160647 742304 334007339 399597022 4574.483485758629 5399.963485758629 20638 1400 1400 28893200 40450480000
76	27902951 742968 334009313 399597023 4574.493279192177 5399.973279192177 20638 1400 1400 28893200 40450480000
77	28645919 948019 334007339 399597022 4574.483485758629 5399.963485758629 20638 0.016345602729 0.136886777569 349.82894425471 6.0599974865401
94	29593938 10282 334717172 399585700 4582.194006806065 5399.393821620076 313 1 1 313 313
95	29604220 11902 334717172 399585700 4582.194006806065 5399.393821620076 313 3121 7262435 270316164 4.995477209189e+14
96	29616122 14325 334717172 399585700 4582.194006806065 5399.393821620076 313 0.077818280245 0.092794508879 24.503680187399 1.9190893985733
97	29630447 2177 334327958 399023654 4578.535014999734 5393.833116386309 56 1048576 1048576 58720256 61572651155456
98	29632624 1841 334327958 399023654 4578.535014999734 5393.833116386309 56 1 1 56 56
99	29634465 2606 334327958 399023654 4578.535014999734 5393.833116386309 56 6.209131201467 35.341049652346 796.18980280983 13471.076918981
123	29637071 1445 334878825 399487881 4583.305328172477 5397.647704386414 37 6498 4488438 29723998 53711596331708
124	29638516 1219 335414234 396060495 4587.276393157716 5349.655128109931 36 1 1 36 36
125	29639735 1744 334878825 399487881 4583.305328172477 5397.647704386414 37 0.533400185779 47.992576276483 332.21309533539 7314.0591189467
126	29641479 2473 334878825 399487881 4583.305328172477 5397.647704386414 73 0 1 36 36
135	29643952 1443 336818877 397909154 4599.866252983473 5374.509820231397 37 52057 3461960 31162099 47834561022535
136	29645395 1256 335062925 397818538 4584.138840880379 5372.898390413734 37 1 1 37 37
137	29646651 1745 336818877 397909154 4599.866252983473 5374.509820231397 37 1.068641514146 38.856107056508 419.3532197292 9822.050945109
138	29648396 2507 335031878 397909154 4583.963203700108 5374.509820231397 74 0 1 37 37
147	29650903 1127 337104793 398850996 4603.208590405024 5390.84801312804 29 5589 1679529 16341454 15600849338696
148	29652030 979 335609354 398794148 4589.000929354391 5389.572301632635 29 1 1 29 29
149	29653009 1363 337104793 398850996 4603.208590405024 5390.84801312804 29 0.532252667261 36.196712387633 237.72346004693 4825.3362246452
150	29654372 1965 335567435 398850996 4588.749448268805 5390.84801312804 58 0 1 29 29
159	29656337 1529 335128496 397978281 4584.751962832213 5375.796247438737 39 18146 3465675 35250394 62251089222520
160	29657866 1289 335562765 397868022 4588.729134159659 5374.226433941998 38 1 1 38 38
161	29659155 1842 335128496 397978281 4584.751962832213 5375.796247438737 39 0.715821760017 55.453963881981 466.8376651244 12959.212750701
162	29660997 2611 335128496 397978281 4584.751962832213 5375.796247438737 77 0 1 38 38
171	29663608 1096 335680597 394144577 4589.29914641119 5325.3475031395 28 15998 2137543 21229531 28594521550467
172	29664704 951 335987755 397274085 4591.224361748493 5363.200486225085 28 1 1 28 28
173	29665655 1321 335680597 394144577 4589.29914641119 5325.3475031395 28 0.712887827514 42.148835205602 332.72699943492 9028.0394230145
174	29666976 1901 335680597 397265312 4589.29914641119 5363.023626223706 56 0 1 28 28
183	29668877 1250 335395571 399588769 4586.592745254091 5399.489656808038 32 16549 3157442 25420757 36724232434077
184	29670127 1080 334709801 398153371 4582.112474387346 5380.233296713751 32 1 1 32 32
185	29671207 1506 335395571 399588769 4586.592745254091 5399.489656808038 32 0.71481211656 44.554911412858 399.72994007277 11633.509005232
186	29672713 2172 334694631 399588769 4581.930948774002 5399.489656808038 64 0 1 32 32
195	29674885 1252 336564699 398804191 4595.997588802455 5390.088010188411 32 38012 4922773 31023683 66883377028763
196	29676137 1087 335580768 398584355 4588.879894740415 5385.23057487189 32 1 1 32 32
197	29677224 1503 336564699 398804191 4595.997588802455 5390.088010188411 32 0.898328652561 72.274900656704 377.78910677847 13415.071474324
198	29678727 2171 335550661 398804191 4588.676944310349 5390.088010188411 64 0 1 32 32
207	29680898 1096 334039776 395858143 4574.723278204057 5347.395859685263 28 3121 2532890 26226833 43253630279965
208	29681994 950 334731879 398350922 4582.319696921525 5382.722977679742 28 1 1 28 28
209	29682944 1319 334039776 395858143 4574.723278204057 5347.395859685263 28 0.432649762759 64.720843585114 380.52273329009 12954.143822246
210	29684263 1899 334039776 398348054 4574.723278204057 5382.546126653431 56 0 1 28 28
219	29686162 1166 337469134 397999975 4609.669626516477 5377.218154973308 30 8543 7262435 30983808 95032702356520
220	29687328 1019 338055944 399574461 4619.894023356593 5399.315967287532 30 1 1 30 30
221	29688347 1413 337469134 397999975 4609.669626516477 5377.218154973308 30 0.534564812845 66.626117875528 383.21018178139 15382.125717373
222	29689760 2032 337469134 399539844 4609.669626516477 5399.123006718999 60 0 1 30 30
231	29691792 939 336797170 399587293 4599.034053348435 5399.401058793814 24 5075 4328364 31987923 81314205464249
232	29692731 781 337292647 399489463 4606.366408253698 5397.752597107693 23 1 1 23 23
233	29693512 1131 336797170 399587293 4599.034053348435 5399.401058793814 24 0.531742839322 70.300743310577 452.55755600395 21058.44145707
234	29694643 1591 336797170 399587293 4599.034053348435 5399.401058793814 47 0 1 23 23
243	29696234 754162 334006009 399597182 4574.469626234906 5399.989626234906 20402 1400 1400 28562800 39987920000
244	30450396 722365 334005855 399597034 4574.4671401559 5399.9871401559 20639 1400 1400 28894600 40452440000
245	31172761 957461 334006009 399597182 4574.469626234906 5399.989626234906 20402 0.016321494151 0.174117612909 499.6764620697 25.670563808326
259	32130222 1896 334333068 399036553 4578.633940595241 5393.932206357804 56 1 1 56 56
260	32132118 2230 334357638 399060036 4578.987118043755 5394.286855582909 56 1048576 1048576 58720256 61572651155456
261	32134348 2661 334333068 399036553 4578.633940595241 5393.932206357804 56 6.38052591678 35.440268765537 804.91459070542 13718.994983734
262	32137009 3790 334333068 399048350 4578.633940595241 5394.110511337494 112 0 1 56 56
