file 32501709 1471537556                                        
version 2
run _10off-2-20160818-17:47:18-21376
attr configname _10off
attr datetime 20160818-17:47:18
attr experiment _10off
attr inifile omnetpp.ini
attr iterationvars ""
attr iterationvars2 $repetition=2
attr measurement ""
attr network University
attr processid 21376
attr repetition 2
attr replication #2
attr resultdir /utmnt/ut/si/sinp1070
attr runnumber 2
attr seedset 2

vector 262  University.whostFTP.tcpApp[0]  numActiveSessions:vector  ETV
attr interpolationmode  sample-hold
attr source  sum(connect)
attr title  "number of active sessions, vector"
vector 76  University.profLaptop.udpApp[0]  sentPk:vector(packetBytes)  ETV
attr interpolationmode  none
attr source  sentPk
attr title  "packets sent, vector(packetBytes)"
vector 244  University.whostVideoConf.udpApp[0]  sentPk:vector(packetBytes)  ETV
attr interpolationmode  none
attr source  sentPk
attr title  "packets sent, vector(packetBytes)"
vector 243  University.whostVideoConf.udpApp[0]  rcvdPk:vector(packetBytes)  ETV
attr interpolationmode  none
attr source  rcvdPk
attr title  "packets received, vector(packetBytes)"
vector 245  University.whostVideoConf.udpApp[0]  rcvdPkLifetime:vector  ETV
attr interpolationmode  none
attr source  messageAge(rcvdPk)
attr title  "received packet lifetime, vector"
attr unit  s
vector 260  University.whostFTP.tcpApp[0]  sentPk:vector(packetBytes)  ETV
attr interpolationmode  none
attr source  sentPk
attr title  "packets sent, vector(packetBytes)"
vector 75  University.profLaptop.udpApp[0]  rcvdPk:vector(packetBytes)  ETV
attr interpolationmode  none
attr source  rcvdPk
attr title  "packets received, vector(packetBytes)"
vector 77  University.profLaptop.udpApp[0]  rcvdPkLifetime:vector  ETV
attr interpolationmode  none
attr source  messageAge(rcvdPk)
attr title  "received packet lifetime, vector"
attr unit  s
vector 150  University.whttpStudents[2].tcpApp[0]  numActiveSessions:vector  ETV
attr interpolationmode  sample-hold
attr source  sum(connect)
attr title  "number of active sessions, vector"
vector 148  University.whttpStudents[2].tcpApp[0]  sentPk:vector(packetBytes)  ETV
attr interpolationmode  none
attr source  sentPk
attr title  "packets sent, vector(packetBytes)"
vector 94  University.Server.tcpApp[0]  rcvdPk:vector(packetBytes)  ETV
attr interpolationmode  none
attr source  rcvdPk
attr title  "packets received, vector(packetBytes)"
vector 96  University.Server.tcpApp[0]  endToEndDelay:vector  ETV
attr interpolationmode  none
attr source  messageAge(rcvdPk)
attr title  "end-to-end delay, vector"
attr unit  s
vector 95  University.Server.tcpApp[0]  sentPk:vector(packetBytes)  ETV
attr interpolationmode  none
attr source  sentPk
attr title  "packets sent, vector(packetBytes)"
vector 147  University.whttpStudents[2].tcpApp[0]  rcvdPk:vector(packetBytes)  ETV
attr interpolationmode  none
attr source  rcvdPk
attr title  "packets received, vector(packetBytes)"
vector 149  University.whttpStudents[2].tcpApp[0]  endToEndDelay:vector  ETV
attr interpolationmode  none
attr source  messageAge(rcvdPk)
attr title  "end-to-end delay, vector"
attr unit  s
vector 97  University.Server.tcpApp[1]  rcvdPk:vector(packetBytes)  ETV
attr interpolationmode  none
attr source  rcvdPk
attr title  "packets received, vector(packetBytes)"
vector 99  University.Server.tcpApp[1]  endToEndDelay:vector  ETV
attr interpolationmode  none
attr source  messageAge(rcvdPk)
attr title  "end-to-end delay, vector"
attr unit  s
vector 98  University.Server.tcpApp[1]  sentPk:vector(packetBytes)  ETV
attr interpolationmode  none
attr source  sentPk
attr title  "packets sent, vector(packetBytes)"
vector 259  University.whostFTP.tcpApp[0]  rcvdPk:vector(packetBytes)  ETV
attr interpolationmode  none
attr source  rcvdPk
attr title  "packets received, vector(packetBytes)"
vector 261  University.whostFTP.tcpApp[0]  endToEndDelay:vector  ETV
attr interpolationmode  none
attr source  messageAge(rcvdPk)
attr title  "end-to-end delay, vector"
attr unit  s
vector 138  University.whttpStudents[1].tcpApp[0]  numActiveSessions:vector  ETV
attr interpolationmode  sample-hold
attr source  sum(connect)
attr title  "number of active sessions, vector"
vector 136  University.whttpStudents[1].tcpApp[0]  sentPk:vector(packetBytes)  ETV
attr interpolationmode  none
attr source  sentPk
attr title  "packets sent, vector(packetBytes)"
vector 135  University.whttpStudents[1].tcpApp[0]  rcvdPk:vector(packetBytes)  ETV
attr interpolationmode  none
attr source  rcvdPk
attr title  "packets received, vector(packetBytes)"
vector 137  University.whttpStudents[1].tcpApp[0]  endToEndDelay:vector  ETV
attr interpolationmode  none
attr source  messageAge(rcvdPk)
attr title  "end-to-end delay, vector"
attr unit  s
vector 174  University.whttpStudents[4].tcpApp[0]  numActiveSessions:vector  ETV
attr interpolationmode  sample-hold
attr source  sum(connect)
attr title  "number of active sessions, vector"
vector 172  University.whttpStudents[4].tcpApp[0]  sentPk:vector(packetBytes)  ETV
attr interpolationmode  none
attr source  sentPk
attr title  "packets sent, vector(packetBytes)"
vector 210  University.whttpStudents[7].tcpApp[0]  numActiveSessions:vector  ETV
attr interpolationmode  sample-hold
attr source  sum(connect)
attr title  "number of active sessions, vector"
vector 208  University.whttpStudents[7].tcpApp[0]  sentPk:vector(packetBytes)  ETV
attr interpolationmode  none
attr source  sentPk
attr title  "packets sent, vector(packetBytes)"
vector 171  University.whttpStudents[4].tcpApp[0]  rcvdPk:vector(packetBytes)  ETV
attr interpolationmode  none
attr source  rcvdPk
attr title  "packets received, vector(packetBytes)"
vector 173  University.whttpStudents[4].tcpApp[0]  endToEndDelay:vector  ETV
attr interpolationmode  none
attr source  messageAge(rcvdPk)
attr title  "end-to-end delay, vector"
attr unit  s
vector 207  University.whttpStudents[7].tcpApp[0]  rcvdPk:vector(packetBytes)  ETV
attr interpolationmode  none
attr source  rcvdPk
attr title  "packets received, vector(packetBytes)"
vector 209  University.whttpStudents[7].tcpApp[0]  endToEndDelay:vector  ETV
attr interpolationmode  none
attr source  messageAge(rcvdPk)
attr title  "end-to-end delay, vector"
attr unit  s
vector 162  University.whttpStudents[3].tcpApp[0]  numActiveSessions:vector  ETV
attr interpolationmode  sample-hold
attr source  sum(connect)
attr title  "number of active sessions, vector"
vector 160  University.whttpStudents[3].tcpApp[0]  sentPk:vector(packetBytes)  ETV
attr interpolationmode  none
attr source  sentPk
attr title  "packets sent, vector(packetBytes)"
vector 186  University.whttpStudents[5].tcpApp[0]  numActiveSessions:vector  ETV
attr interpolationmode  sample-hold
attr source  sum(connect)
attr title  "number of active sessions, vector"
vector 184  University.whttpStudents[5].tcpApp[0]  sentPk:vector(packetBytes)  ETV
attr interpolationmode  none
attr source  sentPk
attr title  "packets sent, vector(packetBytes)"
vector 159  University.whttpStudents[3].tcpApp[0]  rcvdPk:vector(packetBytes)  ETV
attr interpolationmode  none
attr source  rcvdPk
attr title  "packets received, vector(packetBytes)"
vector 161  University.whttpStudents[3].tcpApp[0]  endToEndDelay:vector  ETV
attr interpolationmode  none
attr source  messageAge(rcvdPk)
attr title  "end-to-end delay, vector"
attr unit  s
vector 183  University.whttpStudents[5].tcpApp[0]  rcvdPk:vector(packetBytes)  ETV
attr interpolationmode  none
attr source  rcvdPk
attr title  "packets received, vector(packetBytes)"
vector 185  University.whttpStudents[5].tcpApp[0]  endToEndDelay:vector  ETV
attr interpolationmode  none
attr source  messageAge(rcvdPk)
attr title  "end-to-end delay, vector"
attr unit  s
vector 198  University.whttpStudents[6].tcpApp[0]  numActiveSessions:vector  ETV
attr interpolationmode  sample-hold
attr source  sum(connect)
attr title  "number of active sessions, vector"
vector 196  University.whttpStudents[6].tcpApp[0]  sentPk:vector(packetBytes)  ETV
attr interpolationmode  none
attr source  sentPk
attr title  "packets sent, vector(packetBytes)"
vector 222  University.whttpStudents[8].tcpApp[0]  numActiveSessions:vector  ETV
attr interpolationmode  sample-hold
attr source  sum(connect)
attr title  "number of active sessions, vector"
vector 220  University.whttpStudents[8].tcpApp[0]  sentPk:vector(packetBytes)  ETV
attr interpolationmode  none
attr source  sentPk
attr title  "packets sent, vector(packetBytes)"
vector 195  University.whttpStudents[6].tcpApp[0]  rcvdPk:vector(packetBytes)  ETV
attr interpolationmode  none
attr source  rcvdPk
attr title  "packets received, vector(packetBytes)"
vector 197  University.whttpStudents[6].tcpApp[0]  endToEndDelay:vector  ETV
attr interpolationmode  none
attr source  messageAge(rcvdPk)
attr title  "end-to-end delay, vector"
attr unit  s
vector 234  University.whttpStudents[9].tcpApp[0]  numActiveSessions:vector  ETV
attr interpolationmode  sample-hold
attr source  sum(connect)
attr title  "number of active sessions, vector"
vector 232  University.whttpStudents[9].tcpApp[0]  sentPk:vector(packetBytes)  ETV
attr interpolationmode  none
attr source  sentPk
attr title  "packets sent, vector(packetBytes)"
vector 231  University.whttpStudents[9].tcpApp[0]  rcvdPk:vector(packetBytes)  ETV
attr interpolationmode  none
attr source  rcvdPk
attr title  "packets received, vector(packetBytes)"
vector 233  University.whttpStudents[9].tcpApp[0]  endToEndDelay:vector  ETV
attr interpolationmode  none
attr source  messageAge(rcvdPk)
attr title  "end-to-end delay, vector"
attr unit  s
vector 219  University.whttpStudents[8].tcpApp[0]  rcvdPk:vector(packetBytes)  ETV
attr interpolationmode  none
attr source  rcvdPk
attr title  "packets received, vector(packetBytes)"
vector 221  University.whttpStudents[8].tcpApp[0]  endToEndDelay:vector  ETV
attr interpolationmode  none
attr source  messageAge(rcvdPk)
attr title  "end-to-end delay, vector"
attr unit  s
vector 126  University.whttpStudents[0].tcpApp[0]  numActiveSessions:vector  ETV
attr interpolationmode  sample-hold
attr source  sum(connect)
attr title  "number of active sessions, vector"
vector 124  University.whttpStudents[0].tcpApp[0]  sentPk:vector(packetBytes)  ETV
attr interpolationmode  none
attr source  sentPk
attr title  "packets sent, vector(packetBytes)"
vector 123  University.whttpStudents[0].tcpApp[0]  rcvdPk:vector(packetBytes)  ETV
attr interpolationmode  none
attr source  rcvdPk
attr title  "packets received, vector(packetBytes)"
vector 125  University.whttpStudents[0].tcpApp[0]  endToEndDelay:vector  ETV
attr interpolationmode  none
attr source  messageAge(rcvdPk)
attr title  "end-to-end delay, vector"
attr unit  s
75	10683 4018857 17417 497435185 1.049670074584 4531.594658172441 113285 1400 1400 158599000 222038600000
76	4029540 4024699 58 497433719 0.001037049116 4531.561037049116 113290 1400 1400 158606000 222048400000
77	8054239 5145948 17417 497433634 1.049670074584 4531.552637913072 113284 0.016345599772 1.033377761284 1966.2631616385 44.711218979978
94	13200187 74242 115671 497413710 2.589299102408 4531.139249250947 2290 1 1 2290 2290
95	13274429 86060 115671 497413710 2.589299102408 4531.139249250947 2290 214 6242668 1879794129 3.1456529677333e+15
96	13360489 103775 115671 497413710 2.589299102408 4531.139249250947 2290 0.027990422986 0.047232272916 65.155031327059 1.8573831831936
97	13464264 25187 247412 497194654 7.390817551048 4527.416341679754 655 1048576 1048576 686817280 7.2018011619328e+14
98	13489451 21257 247412 497194654 7.390817551048 4527.416341679754 655 1 1 655 655
99	13510708 29734 247412 497194654 7.390817551048 4527.416341679754 655 1.193748116184 21.743621464002 4441.7630729542 34076.583500717
123	13540442 8745 3923117 496224530 44.789556397775 4520.016526828935 226 13364 6242668 200688720 4.0198742382936e+14
124	13549187 7557 3860945 496193705 44.315305415625 4519.722188267914 226 1 1 226 226
125	13556744 10509 3923117 496224530 44.789556397775 4520.016526828935 226 0.182961745936 22.7650913556 998.50523801889 9301.8776343278
126	13567253 15127 3859687 496224530 44.270165590161 4520.016526828935 452 0 1 226 226
135	13582380 8927 350859 497374959 8.512821298792 4530.046728442921 232 8568 5992981 177703602 3.0548934317831e+14
136	13591307 7747 335820 496674704 8.225535485549 4524.467567926527 232 1 1 232 232
137	13599054 10760 350859 497374959 8.512821298792 4530.046728442921 232 0.18025868252 21.318810190323 909.13809609659 7756.6880168734
138	13609814 15491 334844 497374959 8.180422758269 4530.046728442921 464 0 1 232 232
147	13625305 8032 116864 496205958 2.651189467908 4519.78200350202 209 1614 4906029 158042391 2.3687212005829e+14
148	13633337 6973 114613 494057276 2.561263643296 4502.745484423046 209 1 1 209 209
149	13640310 9689 116864 496205958 2.651189467908 4519.78200350202 209 0.089734091278 20.767128049729 843.28793765988 7583.7157309131
150	13649999 13931 113325 496205958 2.516105867848 4519.78200350202 418 0 1 209 209
159	13663930 9303 984485 495678280 14.993366283651 4516.192363281326 241 1753 4289674 201227953 3.191778219917e+14
160	13673233 8051 921545 495660356 14.530159281694 4515.919416057328 241 1 1 241 241
161	13681284 11189 984485 495678280 14.993366283651 4516.192363281326 241 0.089847841612 23.464762115252 1090.1491015901 10294.72411572
162	13692473 16116 920302 495678280 14.485010477134 4516.192363281326 482 0 1 241 241
171	13708589 8513 633898 496481344 11.603563652497 4523.211966533174 221 521 4767375 183763737 2.9959148720544e+14
172	13717102 7388 378223 495444467 10.004108107156 4514.716823497127 221 1 1 221 221
173	13724490 10253 633898 496481344 11.603563652497 4523.211966533174 221 0.046219192839 85.774126748623 1083.5568033915 17133.365281047
174	13734743 14766 376912 496481344 9.958950282964 4523.211966533174 442 0 1 221 221
183	13749509 9636 987366 497425247 15.00630582081 4531.342926232807 250 7370 5311624 199864377 3.1037229380702e+14
184	13759145 8343 924266 497411947 14.603714653263 4531.111258787563 250 1 1 250 250
185	13767488 11597 987366 497425247 15.00630582081 4531.342926232807 250 0.229666371654 22.849996699101 1050.2169300411 9264.9562508096
186	13779085 16680 922599 497425247 14.558583872119 4531.342926232807 500 0 1 250 250
195	13795765 8964 1825496 493650464 20.341770926283 4499.164443842919 232 20110 5027267 208096236 3.5250401560746e+14
196	13804729 7794 1174699 496889530 17.279172470879 4525.678888996493 233 1 1 233 233
197	13812523 10771 1825496 493650464 20.341770926283 4499.164443842919 232 0.209029389946 33.272590499699 1125.0490163578 11123.457545208
198	13823294 15540 1173162 496881309 17.234032676059 4525.633315696856 465 0 1 233 233
207	13838834 8582 837152 496491960 13.109154722835 4523.260261274681 222 3936 5625830 183883673 3.3819088509874e+14
208	13847416 7431 491145 496323912 10.873055677269 4522.478472665518 222 1 1 222 222
209	13854847 10331 837152 496491960 13.109154722835 4523.260261274681 222 0.091970814117 18.248496983039 938.80770416272 8635.3789824943
210	13865178 14865 481247 496491960 10.81018441977 4523.260261274681 444 0 1 222 222
219	13880043 8336 2952428 491049111 32.741418279023 4470.589433667104 216 1916 5243605 176525824 2.9277091730908e+14
220	13888379 7263 1557752 494276294 19.181197330188 4504.635077804213 217 1 1 217 217
221	13895642 10037 2952428 491049111 32.741418279023 4470.589433667104 216 0.09000477676 22.707406561847 890.96835277586 7881.2231997364
222	13905679 14483 1534193 494274414 19.081324711905 4504.590327167333 433 0 1 217 217
231	13920162 9212 2429468 497181848 29.277638743187 4527.346272286738 239 214 3985305 185269002 2.7498477191294e+14
232	13929374 7980 2386691 496505742 28.90569436504 4523.510817571826 239 1 1 239 239
233	13937354 11085 2429468 497181848 29.277638743187 4527.346272286738 239 0.048931388655 29.823500535278 1010.868094389 9424.0398528927
234	13948439 15960 2385392 497181848 28.859691467554 4527.346272286738 478 0 1 239 239
243	13964399 4055472 11447 497434837 1.017753319512 4531.579183578881 111173 1400 1400 155642200 217899080000
244	18019871 3911410 70 497434232 0.0162923133 4531.5762923133 113290 1400 1400 158606000 222048400000
245	21931281 5161998 11447 497434837 1.017753319512 4531.579183578881 111173 0.016319645029 1.113479055459 3272.6976785726 227.62369567294
259	27093279 21903 247624 497196934 7.407515585724 4527.43297671443 655 1 1 655 655
260	27115182 25876 16706 497200364 1.046118621339 4527.52192634291 656 1048576 1048576 687865856 7.2127962782106e+14
261	27141058 30383 247624 497196934 7.407515585724 4527.43297671443 655 1.210417534564 21.760348132751 4457.9744976194 34314.473516297
262	27171441 43827 53 497198741 0 4527.477673506942 1311 0 1 656 656
75	27215268 780339 497436673 596482218 4531.632637913072 5399.992637913072 21708 1400 1400 30391200 42547680000
76	27995607 781560 497435191 596480656 4531.601037049116 5399.961037049116 21710 1400 1400 30394000 42551600000
77	28777167 996309 497435185 596482218 4531.594658172441 5399.992637913072 21709 0.016345599772 0.245339920506 374.72290127627 6.7161656927717
94	29773476 15306 497664535 596233999 4535.84931531842 5398.240600705298 465 1 1 465 465
95	29788782 17697 497664535 596233999 4535.84931531842 5398.240600705298 465 2275 7128136 366189833 6.4436650332203e+14
96	29806479 21298 497664535 596233999 4535.84931531842 5398.240600705298 465 0.027990422986 0.038616425038 13.237581890988 0.37744295949702
97	29827777 5408 497530262 596388598 4532.787959549253 5399.218084803738 139 1048576 1048576 145752064 1.5283211626086e+14
98	29833185 4574 497530262 596388598 4532.787959549253 5399.218084803738 139 1 1 139 139
99	29837759 6369 497530262 596388598 4532.787959549253 5399.218084803738 139 2.113372410744 11.770392557891 852.48154315123 5609.594173512
123	29844128 2145 499221750 596042468 4546.806627556136 5396.214246779171 55 29725 7128136 45193015 95801765169531
124	29846273 1863 498015216 595390965 4539.001729028329 5392.049178176977 55 1 1 55 55
125	29848136 2577 499221750 596042468 4546.806627556136 5396.214246779171 55 0.231846033979 23.496539420305 251.2049711448 2487.2648856439
126	29850713 3724 498013211 596042468 4538.958174260823 5396.214246779171 110 0 1 55 55
135	29854437 1673 499245567 593388988 4546.95645970972 5372.690100565581 43 24880 4913783 29869487 49609903345357
136	29856110 1494 498571844 596060959 4543.521357635055 5397.011339729798 44 1 1 44 44
137	29857604 2014 499245567 593388988 4546.95645970972 5372.690100565581 43 0.228216516463 14.909042254907 183.84861452137 1630.1487352585
138	29859618 2945 498568117 596060040 4543.477802916641 5396.967785011384 87 0 1 44 44
147	29862563 1714 499136363 594298734 4546.408690808549 5381.989557013297 44 2275 2641148 29128895 33834496667421
148	29864277 1490 498564107 593977571 4543.347977052844 5379.240352791021 44 1 1 44 44
149	29865767 2057 499136363 594298734 4546.408690808549 5381.989557013297 44 0.23571029497 15.631420737941 148.29318174316 948.16316292
150	29867824 2983 498563054 594298734 4543.304422310346 5381.989557013297 88 0 1 44 44
159	29870807 1833 498374159 596332343 4541.174530222733 5398.76226690665 47 61900 4766152 36187911 70689219503101
160	29872640 1597 498327669 596233251 4540.815338575819 5398.212583224352 47 1 1 47 47
161	29874237 2205 498374159 596332343 4541.174530222733 5398.76226690665 47 0.288235473148 39.228158244609 211.26360517031 2875.1280715204
162	29876442 3176 498310072 596332343 4540.737149100656 5398.76226690665 94 0 1 47 47
171	29879618 1799 498486253 593567759 4542.736055664505 5375.274712796761 46 10184 3650671 37216820 63046513512166
172	29881417 1595 498473828 595898419 4542.499665912901 5395.262637680629 47 1 1 47 47
173	29883012 2162 498486253 593567759 4542.736055664505 5375.274712796761 46 0.143482648902 16.502025792179 176.27422143142 1589.3917606095
174	29885174 3154 498472349 595897026 4542.456111146031 5395.219075918096 93 0 1 47 47
183	29888328 1909 498558512 595667915 4543.136158296285 5393.24905087301 49 6521 4587360 43196381 92512929310249
184	29890237 1661 497663923 595611306 4535.821306855036 5392.975967120289 49 1 1 49 49
185	29891898 2300 498558512 595667915 4543.136158296285 5393.24905087301 49 0.226973974834 21.810241670479 224.66836460919 2616.5572046625
186	29894198 3321 497662658 595667915 4535.777305894649 5393.24905087301 98 0 1 49 49
195	29897519 1876 497527630 593870400 4532.690271404569 5377.203383429998 48 9534 2470059 38498884 52286361569400
196	29899395 1592 497826690 593811077 4537.034060680869 5376.743377304806 47 1 1 47 47
197	29900987 2254 497527630 593870400 4532.690271404569 5377.203383429998 48 0.140271568655 19.209498281532 229.35894015278 2179.3678485054
198	29903241 3222 497527630 593870400 4532.690271404569 5377.203383429998 95 0 1 47 47
207	29906463 2031 498019030 595739134 4539.089280969488 5393.888450923663 52 9171 2869969 36227100 48006135817954
208	29908494 1762 497915945 594350794 4538.395951210203 5383.49225593317 52 1 1 52 52
209	29910256 2444 498019030 595739134 4539.089280969488 5393.888450923663 52 0.139405702296 16.721126130073 216.14959215378 1916.2141759031
210	29912700 3528 497914096 595739134 4538.352396451899 5393.888450923663 104 0 1 52 52
219	29916228 1525 502083733 595070047 4568.64579057498 5388.726598774552 39 24956 5831866 38526220 93160009886118
220	29917753 1289 504093859 594588906 4584.960990615845 5384.975193719568 38 1 1 38 38
221	29919042 1828 502083733 595070047 4568.64579057498 5388.726598774552 39 0.228255760064 64.010712770767 245.95192120359 6828.8122975052
222	29920870 2607 502083733 595070047 4568.64579057498 5388.726598774552 77 0 1 38 38
231	29923477 1641 498440316 595895950 4541.859114889502 5395.203340120236 42 15925 3621368 32015348 45551287450932
232	29925118 1423 498224708 595447988 4540.192156971574 5392.290972718349 42 1 1 42 42
233	29926541 1971 498440316 595895950 4541.859114889502 5395.203340120236 42 0.185706915969 10.956087377894 167.33382461207 1187.2812237359
234	29928512 2842 498221264 595895950 4540.14860221215 5395.203340120236 84 0 1 42 42
243	29931354 786279 497435404 596481367 4531.617384088888 5399.977384088888 21279 1400 1400 29790600 41706840000
244	30717633 759850 497435257 596481209 4531.6162923133 5399.9762923133 21710 1400 1400 30394000 42551600000
245	31477483 998018 497435404 596481367 4531.617384088888 5399.977384088888 21279 0.016323386442 0.197468760746 638.68735017096 40.019425732564
259	32475501 4717 497530705 596390369 4532.804603583929 5399.234764838414 139 1 1 139 139
260	32480218 5550 497532644 596392804 4532.893616212409 5399.323732466894 139 1048576 1048576 145752064 1.5283211626086e+14
261	32485768 6512 497530705 596390369 4532.804603583929 5399.234764838414 139 2.130363961964 11.795899059759 855.35200320427 5644.6728911013
262	32492280 9429 497530705 596391675 4532.804603583929 5399.279425630926 278 0 1 139 139
