file 30658145 1471642943                                        
version 2
run _18to20off-3-20160819-23:16:55-18456
attr configname _18to20off
attr datetime 20160819-23:16:55
attr experiment _18to20off
attr inifile omnetpp.ini
attr iterationvars $0=18
attr iterationvars2 "$0=18, $repetition=3"
attr measurement $0=18
attr network University
attr processid 18456
attr repetition 3
attr replication #3
attr resultdir /utmnt/ut/si/sinp1070
attr runnumber 3
attr seedset 3

vector 340  University.whostVideoConf.udpApp[0]  sentPk:vector(packetBytes)  ETV
attr interpolationmode  none
attr source  sentPk
attr title  "packets sent, vector(packetBytes)"
vector 75  University.profLaptop.udpApp[0]  rcvdPk:vector(packetBytes)  ETV
attr interpolationmode  none
attr source  rcvdPk
attr title  "packets received, vector(packetBytes)"
vector 77  University.profLaptop.udpApp[0]  rcvdPkLifetime:vector  ETV
attr interpolationmode  none
attr source  messageAge(rcvdPk)
attr title  "received packet lifetime, vector"
attr unit  s
vector 76  University.profLaptop.udpApp[0]  sentPk:vector(packetBytes)  ETV
attr interpolationmode  none
attr source  sentPk
attr title  "packets sent, vector(packetBytes)"
vector 270  University.whttpStudents[12].tcpApp[0]  numActiveSessions:vector  ETV
attr interpolationmode  sample-hold
attr source  sum(connect)
attr title  "number of active sessions, vector"
vector 123  University.whttpStudents[0].tcpApp[0]  rcvdPk:vector(packetBytes)  ETV
attr interpolationmode  none
attr source  rcvdPk
attr title  "packets received, vector(packetBytes)"
vector 125  University.whttpStudents[0].tcpApp[0]  endToEndDelay:vector  ETV
attr interpolationmode  none
attr source  messageAge(rcvdPk)
attr title  "end-to-end delay, vector"
attr unit  s
vector 126  University.whttpStudents[0].tcpApp[0]  numActiveSessions:vector  ETV
attr interpolationmode  sample-hold
attr source  sum(connect)
attr title  "number of active sessions, vector"
vector 603  University.whostVideoConf.wlan[0].outputHook[0]  "thruput (bit/sec)"  ETV
vector 604  University.whostVideoConf.wlan[0].outputHook[0]  packet/sec  ETV
vector 411  University.profLaptop.ppp[0].outputHook[0]  "thruput (bit/sec)"  ETV
vector 412  University.profLaptop.ppp[0].outputHook[0]  packet/sec  ETV
vector 397  University.mainR.ppp[1].inputHook[0]  "thruput (bit/sec)"  ETV
vector 398  University.mainR.ppp[1].inputHook[0]  packet/sec  ETV
vector 395  University.mainR.ppp[1].outputHook[0]  "thruput (bit/sec)"  ETV
vector 396  University.mainR.ppp[1].outputHook[0]  packet/sec  ETV
vector 379  University.remoteR.eth[0].outputHook[0]  "thruput (bit/sec)"  ETV
vector 380  University.remoteR.eth[0].outputHook[0]  packet/sec  ETV
vector 635  University.accessPoint.eth[0].inputHook[0]  "thruput (bit/sec)"  ETV
vector 636  University.accessPoint.eth[0].inputHook[0]  packet/sec  ETV
vector 623  University.accessPoint.wlan[0].outputHook[0]  "thruput (bit/sec)"  ETV
vector 624  University.accessPoint.wlan[0].outputHook[0]  packet/sec  ETV
vector 625  University.accessPoint.wlan[0].inputHook[0]  "thruput (bit/sec)"  ETV
vector 626  University.accessPoint.wlan[0].inputHook[0]  packet/sec  ETV
vector 633  University.accessPoint.eth[0].outputHook[0]  "thruput (bit/sec)"  ETV
vector 634  University.accessPoint.eth[0].outputHook[0]  packet/sec  ETV
vector 381  University.remoteR.eth[0].inputHook[0]  "thruput (bit/sec)"  ETV
vector 382  University.remoteR.eth[0].inputHook[0]  packet/sec  ETV
vector 387  University.remoteR.ppp[0].outputHook[0]  "thruput (bit/sec)"  ETV
vector 388  University.remoteR.ppp[0].outputHook[0]  packet/sec  ETV
vector 413  University.profLaptop.ppp[0].inputHook[0]  "thruput (bit/sec)"  ETV
vector 414  University.profLaptop.ppp[0].inputHook[0]  packet/sec  ETV
vector 393  University.mainR.ppp[0].inputHook[0]  "thruput (bit/sec)"  ETV
vector 394  University.mainR.ppp[0].inputHook[0]  packet/sec  ETV
vector 399  University.mainR.ppp[2].outputHook[0]  "thruput (bit/sec)"  ETV
vector 400  University.mainR.ppp[2].outputHook[0]  packet/sec  ETV
vector 417  University.Server.ppp[0].inputHook[0]  "thruput (bit/sec)"  ETV
vector 418  University.Server.ppp[0].inputHook[0]  packet/sec  ETV
vector 465  University.whttpStudents[4].wlan[0].inputHook[0]  "thruput (bit/sec)"  ETV
vector 466  University.whttpStudents[4].wlan[0].inputHook[0]  packet/sec  ETV
vector 415  University.Server.ppp[0].outputHook[0]  "thruput (bit/sec)"  ETV
vector 416  University.Server.ppp[0].outputHook[0]  packet/sec  ETV
vector 401  University.mainR.ppp[2].inputHook[0]  "thruput (bit/sec)"  ETV
vector 402  University.mainR.ppp[2].inputHook[0]  packet/sec  ETV
vector 391  University.mainR.ppp[0].outputHook[0]  "thruput (bit/sec)"  ETV
vector 392  University.mainR.ppp[0].outputHook[0]  packet/sec  ETV
vector 389  University.remoteR.ppp[0].inputHook[0]  "thruput (bit/sec)"  ETV
vector 390  University.remoteR.ppp[0].inputHook[0]  packet/sec  ETV
vector 463  University.whttpStudents[4].wlan[0].outputHook[0]  "thruput (bit/sec)"  ETV
vector 464  University.whttpStudents[4].wlan[0].outputHook[0]  packet/sec  ETV
vector 443  University.whttpStudents[2].wlan[0].outputHook[0]  "thruput (bit/sec)"  ETV
vector 444  University.whttpStudents[2].wlan[0].outputHook[0]  packet/sec  ETV
vector 445  University.whttpStudents[2].wlan[0].inputHook[0]  "thruput (bit/sec)"  ETV
vector 446  University.whttpStudents[2].wlan[0].inputHook[0]  packet/sec  ETV
vector 330  University.whttpStudents[17].tcpApp[0]  numActiveSessions:vector  ETV
attr interpolationmode  sample-hold
attr source  sum(connect)
attr title  "number of active sessions, vector"
vector 162  University.whttpStudents[3].tcpApp[0]  numActiveSessions:vector  ETV
attr interpolationmode  sample-hold
attr source  sum(connect)
attr title  "number of active sessions, vector"
vector 160  University.whttpStudents[3].tcpApp[0]  sentPk:vector(packetBytes)  ETV
attr interpolationmode  none
attr source  sentPk
attr title  "packets sent, vector(packetBytes)"
vector 94  University.Server.tcpApp[0]  rcvdPk:vector(packetBytes)  ETV
attr interpolationmode  none
attr source  rcvdPk
attr title  "packets received, vector(packetBytes)"
vector 96  University.Server.tcpApp[0]  endToEndDelay:vector  ETV
attr interpolationmode  none
attr source  messageAge(rcvdPk)
attr title  "end-to-end delay, vector"
attr unit  s
vector 95  University.Server.tcpApp[0]  sentPk:vector(packetBytes)  ETV
attr interpolationmode  none
attr source  sentPk
attr title  "packets sent, vector(packetBytes)"
vector 258  University.whttpStudents[11].tcpApp[0]  numActiveSessions:vector  ETV
attr interpolationmode  sample-hold
attr source  sum(connect)
attr title  "number of active sessions, vector"
vector 159  University.whttpStudents[3].tcpApp[0]  rcvdPk:vector(packetBytes)  ETV
attr interpolationmode  none
attr source  rcvdPk
attr title  "packets received, vector(packetBytes)"
vector 161  University.whttpStudents[3].tcpApp[0]  endToEndDelay:vector  ETV
attr interpolationmode  none
attr source  messageAge(rcvdPk)
attr title  "end-to-end delay, vector"
attr unit  s
vector 543  University.whttpStudents[12].wlan[0].outputHook[0]  "thruput (bit/sec)"  ETV
vector 544  University.whttpStudents[12].wlan[0].outputHook[0]  packet/sec  ETV
vector 282  University.whttpStudents[13].tcpApp[0]  numActiveSessions:vector  ETV
attr interpolationmode  sample-hold
attr source  sum(connect)
attr title  "number of active sessions, vector"
vector 435  University.whttpStudents[1].wlan[0].inputHook[0]  "thruput (bit/sec)"  ETV
vector 436  University.whttpStudents[1].wlan[0].inputHook[0]  packet/sec  ETV
vector 475  University.whttpStudents[5].wlan[0].inputHook[0]  "thruput (bit/sec)"  ETV
vector 476  University.whttpStudents[5].wlan[0].inputHook[0]  packet/sec  ETV
vector 545  University.whttpStudents[12].wlan[0].inputHook[0]  "thruput (bit/sec)"  ETV
vector 546  University.whttpStudents[12].wlan[0].inputHook[0]  packet/sec  ETV
vector 505  University.whttpStudents[8].wlan[0].inputHook[0]  "thruput (bit/sec)"  ETV
vector 506  University.whttpStudents[8].wlan[0].inputHook[0]  packet/sec  ETV
vector 535  University.whttpStudents[11].wlan[0].inputHook[0]  "thruput (bit/sec)"  ETV
vector 536  University.whttpStudents[11].wlan[0].inputHook[0]  packet/sec  ETV
vector 575  University.whttpStudents[15].wlan[0].inputHook[0]  "thruput (bit/sec)"  ETV
vector 576  University.whttpStudents[15].wlan[0].inputHook[0]  packet/sec  ETV
vector 525  University.whttpStudents[10].wlan[0].inputHook[0]  "thruput (bit/sec)"  ETV
vector 526  University.whttpStudents[10].wlan[0].inputHook[0]  packet/sec  ETV
vector 495  University.whttpStudents[7].wlan[0].inputHook[0]  "thruput (bit/sec)"  ETV
vector 496  University.whttpStudents[7].wlan[0].inputHook[0]  packet/sec  ETV
vector 485  University.whttpStudents[6].wlan[0].inputHook[0]  "thruput (bit/sec)"  ETV
vector 486  University.whttpStudents[6].wlan[0].inputHook[0]  packet/sec  ETV
vector 585  University.whttpStudents[16].wlan[0].inputHook[0]  "thruput (bit/sec)"  ETV
vector 586  University.whttpStudents[16].wlan[0].inputHook[0]  packet/sec  ETV
vector 425  University.whttpStudents[0].wlan[0].inputHook[0]  "thruput (bit/sec)"  ETV
vector 426  University.whttpStudents[0].wlan[0].inputHook[0]  packet/sec  ETV
vector 565  University.whttpStudents[14].wlan[0].inputHook[0]  "thruput (bit/sec)"  ETV
vector 566  University.whttpStudents[14].wlan[0].inputHook[0]  packet/sec  ETV
vector 515  University.whttpStudents[9].wlan[0].inputHook[0]  "thruput (bit/sec)"  ETV
vector 516  University.whttpStudents[9].wlan[0].inputHook[0]  packet/sec  ETV
vector 595  University.whttpStudents[17].wlan[0].inputHook[0]  "thruput (bit/sec)"  ETV
vector 596  University.whttpStudents[17].wlan[0].inputHook[0]  packet/sec  ETV
vector 605  University.whostVideoConf.wlan[0].inputHook[0]  "thruput (bit/sec)"  ETV
vector 606  University.whostVideoConf.wlan[0].inputHook[0]  packet/sec  ETV
vector 455  University.whttpStudents[3].wlan[0].inputHook[0]  "thruput (bit/sec)"  ETV
vector 456  University.whttpStudents[3].wlan[0].inputHook[0]  packet/sec  ETV
vector 615  University.whostFTP.wlan[0].inputHook[0]  "thruput (bit/sec)"  ETV
vector 616  University.whostFTP.wlan[0].inputHook[0]  packet/sec  ETV
vector 555  University.whttpStudents[13].wlan[0].inputHook[0]  "thruput (bit/sec)"  ETV
vector 556  University.whttpStudents[13].wlan[0].inputHook[0]  packet/sec  ETV
vector 198  University.whttpStudents[6].tcpApp[0]  numActiveSessions:vector  ETV
attr interpolationmode  sample-hold
attr source  sum(connect)
attr title  "number of active sessions, vector"
vector 294  University.whttpStudents[14].tcpApp[0]  numActiveSessions:vector  ETV
attr interpolationmode  sample-hold
attr source  sum(connect)
attr title  "number of active sessions, vector"
vector 222  University.whttpStudents[8].tcpApp[0]  numActiveSessions:vector  ETV
attr interpolationmode  sample-hold
attr source  sum(connect)
attr title  "number of active sessions, vector"
vector 147  University.whttpStudents[2].tcpApp[0]  rcvdPk:vector(packetBytes)  ETV
attr interpolationmode  none
attr source  rcvdPk
attr title  "packets received, vector(packetBytes)"
vector 149  University.whttpStudents[2].tcpApp[0]  endToEndDelay:vector  ETV
attr interpolationmode  none
attr source  messageAge(rcvdPk)
attr title  "end-to-end delay, vector"
attr unit  s
vector 150  University.whttpStudents[2].tcpApp[0]  numActiveSessions:vector  ETV
attr interpolationmode  sample-hold
attr source  sum(connect)
attr title  "number of active sessions, vector"
vector 593  University.whttpStudents[17].wlan[0].outputHook[0]  "thruput (bit/sec)"  ETV
vector 594  University.whttpStudents[17].wlan[0].outputHook[0]  packet/sec  ETV
vector 533  University.whttpStudents[11].wlan[0].outputHook[0]  "thruput (bit/sec)"  ETV
vector 534  University.whttpStudents[11].wlan[0].outputHook[0]  packet/sec  ETV
vector 553  University.whttpStudents[13].wlan[0].outputHook[0]  "thruput (bit/sec)"  ETV
vector 554  University.whttpStudents[13].wlan[0].outputHook[0]  packet/sec  ETV
vector 483  University.whttpStudents[6].wlan[0].outputHook[0]  "thruput (bit/sec)"  ETV
vector 484  University.whttpStudents[6].wlan[0].outputHook[0]  packet/sec  ETV
vector 563  University.whttpStudents[14].wlan[0].outputHook[0]  "thruput (bit/sec)"  ETV
vector 564  University.whttpStudents[14].wlan[0].outputHook[0]  packet/sec  ETV
vector 148  University.whttpStudents[2].tcpApp[0]  sentPk:vector(packetBytes)  ETV
attr interpolationmode  none
attr source  sentPk
attr title  "packets sent, vector(packetBytes)"
vector 503  University.whttpStudents[8].wlan[0].outputHook[0]  "thruput (bit/sec)"  ETV
vector 504  University.whttpStudents[8].wlan[0].outputHook[0]  packet/sec  ETV
vector 583  University.whttpStudents[16].wlan[0].outputHook[0]  "thruput (bit/sec)"  ETV
vector 584  University.whttpStudents[16].wlan[0].outputHook[0]  packet/sec  ETV
vector 171  University.whttpStudents[4].tcpApp[0]  rcvdPk:vector(packetBytes)  ETV
attr interpolationmode  none
attr source  rcvdPk
attr title  "packets received, vector(packetBytes)"
vector 173  University.whttpStudents[4].tcpApp[0]  endToEndDelay:vector  ETV
attr interpolationmode  none
attr source  messageAge(rcvdPk)
attr title  "end-to-end delay, vector"
attr unit  s
vector 174  University.whttpStudents[4].tcpApp[0]  numActiveSessions:vector  ETV
attr interpolationmode  sample-hold
attr source  sum(connect)
attr title  "number of active sessions, vector"
vector 493  University.whttpStudents[7].wlan[0].outputHook[0]  "thruput (bit/sec)"  ETV
vector 494  University.whttpStudents[7].wlan[0].outputHook[0]  packet/sec  ETV
vector 423  University.whttpStudents[0].wlan[0].outputHook[0]  "thruput (bit/sec)"  ETV
vector 424  University.whttpStudents[0].wlan[0].outputHook[0]  packet/sec  ETV
vector 124  University.whttpStudents[0].tcpApp[0]  sentPk:vector(packetBytes)  ETV
attr interpolationmode  none
attr source  sentPk
attr title  "packets sent, vector(packetBytes)"
vector 453  University.whttpStudents[3].wlan[0].outputHook[0]  "thruput (bit/sec)"  ETV
vector 454  University.whttpStudents[3].wlan[0].outputHook[0]  packet/sec  ETV
vector 613  University.whostFTP.wlan[0].outputHook[0]  "thruput (bit/sec)"  ETV
vector 614  University.whostFTP.wlan[0].outputHook[0]  packet/sec  ETV
vector 513  University.whttpStudents[9].wlan[0].outputHook[0]  "thruput (bit/sec)"  ETV
vector 514  University.whttpStudents[9].wlan[0].outputHook[0]  packet/sec  ETV
vector 473  University.whttpStudents[5].wlan[0].outputHook[0]  "thruput (bit/sec)"  ETV
vector 474  University.whttpStudents[5].wlan[0].outputHook[0]  packet/sec  ETV
vector 306  University.whttpStudents[15].tcpApp[0]  numActiveSessions:vector  ETV
attr interpolationmode  sample-hold
attr source  sum(connect)
attr title  "number of active sessions, vector"
vector 573  University.whttpStudents[15].wlan[0].outputHook[0]  "thruput (bit/sec)"  ETV
vector 574  University.whttpStudents[15].wlan[0].outputHook[0]  packet/sec  ETV
vector 138  University.whttpStudents[1].tcpApp[0]  numActiveSessions:vector  ETV
attr interpolationmode  sample-hold
attr source  sum(connect)
attr title  "number of active sessions, vector"
vector 136  University.whttpStudents[1].tcpApp[0]  sentPk:vector(packetBytes)  ETV
attr interpolationmode  none
attr source  sentPk
attr title  "packets sent, vector(packetBytes)"
vector 433  University.whttpStudents[1].wlan[0].outputHook[0]  "thruput (bit/sec)"  ETV
vector 434  University.whttpStudents[1].wlan[0].outputHook[0]  packet/sec  ETV
vector 135  University.whttpStudents[1].tcpApp[0]  rcvdPk:vector(packetBytes)  ETV
attr interpolationmode  none
attr source  rcvdPk
attr title  "packets received, vector(packetBytes)"
vector 137  University.whttpStudents[1].tcpApp[0]  endToEndDelay:vector  ETV
attr interpolationmode  none
attr source  messageAge(rcvdPk)
attr title  "end-to-end delay, vector"
attr unit  s
vector 172  University.whttpStudents[4].tcpApp[0]  sentPk:vector(packetBytes)  ETV
attr interpolationmode  none
attr source  sentPk
attr title  "packets sent, vector(packetBytes)"
vector 246  University.whttpStudents[10].tcpApp[0]  numActiveSessions:vector  ETV
attr interpolationmode  sample-hold
attr source  sum(connect)
attr title  "number of active sessions, vector"
vector 523  University.whttpStudents[10].wlan[0].outputHook[0]  "thruput (bit/sec)"  ETV
vector 524  University.whttpStudents[10].wlan[0].outputHook[0]  packet/sec  ETV
vector 358  University.whostFTP.tcpApp[0]  numActiveSessions:vector  ETV
attr interpolationmode  sample-hold
attr source  sum(connect)
attr title  "number of active sessions, vector"
vector 210  University.whttpStudents[7].tcpApp[0]  numActiveSessions:vector  ETV
attr interpolationmode  sample-hold
attr source  sum(connect)
attr title  "number of active sessions, vector"
vector 186  University.whttpStudents[5].tcpApp[0]  numActiveSessions:vector  ETV
attr interpolationmode  sample-hold
attr source  sum(connect)
attr title  "number of active sessions, vector"
vector 234  University.whttpStudents[9].tcpApp[0]  numActiveSessions:vector  ETV
attr interpolationmode  sample-hold
attr source  sum(connect)
attr title  "number of active sessions, vector"
vector 318  University.whttpStudents[16].tcpApp[0]  numActiveSessions:vector  ETV
attr interpolationmode  sample-hold
attr source  sum(connect)
attr title  "number of active sessions, vector"
75	17326 4297639 694846 327397579 5.017170209301 4857.537170209301 121313 1400 1400 169838200 237773480000
76	4314965 4299583 695842 327398037 5.028325912887 4857.548325912887 121314 1400 1400 169839600 237775440000
77	8614548 5508890 694846 327397579 5.017170209301 4857.537170209301 121313 0.016345629221 0.190846268399 2014.5793911849 33.798253967873
94	14123438 42394 816232 327327207 7.663781733032 4856.926478929917 1312 1 1 1312 1312
95	14165832 49137 816232 327327207 7.663781733032 4856.926478929917 1312 44 6938881 1047827651 1.7594373538237e+15
96	14214969 58146 816232 327327207 7.663781733032 4856.926478929917 1312 0.034818135765 0.039755490946 45.827819346801 1.6009188963922
123	14273115 10563 732621 326769256 5.593425998755 4852.312974191492 275 5461 5413092 236281078 4.2267249542651e+14
124	14283678 9120 1209896 326375333 15.744630373371 4844.93263303464 274 1 1 274 274
125	14292798 12722 732621 326769256 5.593425998755 4852.312974191492 275 0.146858174168 30.115575794755 1218.5898809522 10891.400843537
126	14305520 18537 732621 326769256 5.593425998755 4852.312974191492 549 -1 0 -275 275
135	14324057 9490 3021700 327315217 41.435285682619 4856.256214688524 247 5832 6938881 204576036 4.2254789879419e+14
136	14333547 8228 2270664 326780013 33.564508610807 4852.868375137385 247 1 1 247 247
137	14341775 11424 3021700 327315217 41.435285682619 4856.256214688524 247 0.14492466536 25.344211799303 944.16368642874 8197.9073554674
138	14353199 16457 2269403 327315217 33.516462693891 4856.256214688524 494 0 1 247 247
147	14369656 9734 946148 327393216 10.205962832532 4857.326744686529 253 5043 5224077 210557062 3.3316504202409e+14
148	14379390 8386 961987 327326466 12.295765277946 4856.891615727885 252 1 1 252 252
149	14387776 11701 946148 327393216 10.205962832532 4857.326744686529 253 0.144456425843 29.621663188687 1098.4710104566 9562.088347544
150	14399477 17061 946148 327393216 10.205962832532 4857.326744686529 505 -1 0 -253 253
159	14416538 9509 886848 325219252 8.052209878218 4820.449947683698 247 2505 2928325 172516168 2.2489982235574e+14
160	14426047 8240 815374 324456655 7.628936492702 4813.765155133918 247 1 1 247 247
161	14434287 11443 886848 325219252 8.052209878218 4820.449947683698 247 0.096343166935 22.544112985105 974.84172598627 8349.4690178007
162	14445730 16484 812837 325219252 7.579381316355 4820.449947683698 494 0 1 247 247
171	14462214 11230 1175877 327111196 13.559359934034 4853.928008115181 292 44 5981739 225695360 3.5866638240258e+14
172	14473444 9741 3658741 327133639 46.347871205405 4855.335896707013 292 1 1 292 292
173	14483185 13516 1175877 327111196 13.559359934034 4853.928008115181 292 0.047562744146 20.378706845711 1196.6405375077 9942.826958933
174	14496701 19770 1175877 327132723 13.559359934034 4855.289453740167 584 -1 0 -292 292
186	14516471 1779 5215065 325820255 82.80096009179 4840.019448090343 52 1 52 1378 48230
198	14518250 1878 921998 323526023 9.054322743117 4804.312866447218 55 1 55 1540 56980
210	14520128 1883 5198497 321896136 80.231678105414 4770.458949095861 55 1 55 1540 56980
222	14522011 1910 945145 326680284 10.177896431758 4847.169038902554 56 1 56 1596 60116
234	14523921 1847 5232294 323584520 84.993726569314 4806.858341322001 54 1 54 1485 53955
246	14525768 1841 4079291 324446799 54.543320874612 4812.380790057231 54 1 54 1485 53955
258	14527609 1905 884227 322599236 8.044746473816 4781.694401746128 56 1 56 1596 60116
270	14529514 1874 722203 324455092 5.487046335963 4813.617830692354 55 1 55 1540 56980
282	14531388 1810 909904 323180696 8.70943563899 4795.7651284942 53 1 53 1431 51039
294	14533198 1877 923135 323548271 9.093750687766 4805.273237301328 55 1 55 1540 56980
306	14535075 1843 1565911 326662237 22.733392396131 4846.604581891973 54 1 54 1485 53955
318	14536918 1780 5872884 325348124 87.703402636309 4826.246860176657 52 1 52 1378 48230
330	14538698 1840 803221 325482815 7.364640480561 4833.035556274591 54 1 54 1485 53955
340	14540538 4299581 694089 327397365 5.00082458008 4857.52082458008 121314 1400 1400 169839600 237775440000
358	18840119 1364 5069757 323224497 75 4800 64 1 64 2080 89440
379	18841483 168904 750731 327323954 5.015462426537 4855.748398312539 3580 32.402325523275 11348793.022886 8159920847.8981 4.2831958570155e+16
380	19010387 169043 750731 327323954 5.015462426537 4855.748398312539 3580 0.14465323894319 945.73275190719 685228.80009322 300532717.16248
381	19179430 202167 751006 327391453 5.016260435186 4856.321213542635 4834 276549.11837835 592299.45388709 1615035870.3445 5.6011959038914e+14
382	19381597 190929 751006 327391453 5.016260435186 4856.321213542635 4834 25 948.76205462564 852505.46515693 348042447.97109
387	19572526 202172 751008 327391455 5.016260435186 4856.321213542635 4834 276549.11837835 592299.45388709 1614992299.1032 5.600880967802e+14
388	19774698 190931 751008 327391455 5.016260435186 4856.321213542635 4834 25 948.76205462564 852310.94907003 347940969.20786
389	19965629 168811 765799 327323952 5.399416461661 4855.748398312539 3578 87.299801754094 11348793.022886 8158212709.3592 4.2828763105185e+16
390	20134440 168961 765799 327323952 5.399416461661 4855.748398312539 3578 0.27281188048155 945.73275190719 684910.31795045 300414036.01358
391	20303401 168497 765743 327323942 5.388411794995 4855.738190740769 3571 75.190586861433 12749731.916327 9023439118.9742 5.4699273979247e+16
392	20471898 168631 765743 327323942 5.388411794995 4855.738190740769 3571 0.23497058394198 1063.8719622657 757100.54094852 383340629.08189
393	20640529 201987 752397 327393739 5.026291768519 4856.332170209301 4834 276304.29093972 592345.06214005 1614987998.931 5.6009298643512e+14
394	20842516 190718 752397 327393739 5.026291768519 4856.332170209301 4834 25 948.83511121804 852293.27717612 347926628.45167
395	21033234 186521 750724 327330330 5.033325912887 4856.033325912887 4852 285376 308224 1440062176 4.2740928182579e+14
396	21219755 167113 750724 327330330 5.033325912887 4856.033325912887 4852 49 51 242599 12129917
397	21386868 186521 750721 327330327 5.033325912887 4856.033325912887 4852 285600 285600 1385731200 3.9576483072e+14
398	21573389 167113 750721 327330327 5.033325912887 4856.033325912887 4852 25 25 121300 3032500
399	21740502 194026 752399 327324343 5.026291768519 4855.758969148784 4110 94.672502450015 295951.28751576 227749649.64109 30986522002353
400	21934528 194067 752399 327324343 5.026291768519 4855.758969148784 4110 0.2958515701563 923.84793805595 708292.71871626 301388769.61616
401	22128595 192547 756412 327323940 5.147575304435 4855.738190740769 4081 86.713932810635 12676988.286899 9169647738.4219 5.46344484163e+16
402	22321142 192660 756412 327323940 5.147575304435 4855.738190740769 4081 0.24634640003021 1060.2957801909 775581.66647248 385021334.90899
411	22513802 186521 750716 327329952 5.028325912887 4856.028325912887 4852 285600 285600 1385731200 3.9576483072e+14
412	22700323 167113 750716 327329952 5.028325912887 4856.028325912887 4852 25 25 121300 3032500
413	22867436 186521 751872 327331086 5.038325912887 4856.038325912887 4852 285376 308224 1440062176 4.2740928182579e+14
414	23053957 167113 751872 327331086 5.038325912887 4856.038325912887 4852 49 51 242599 12129917
415	23221070 192270 756399 327323935 5.145254231297 4855.735869667631 4081 86.713932810635 36324108.582577 9326637119.9154 5.7922610758402e+16
416	23413340 192411 756399 327323935 5.145254231297 4855.735869667631 4081 0.24634640003021 3048.1196559096 788676.95117381 408075063.45258
417	23605751 193693 752532 327324547 5.050304000245 4855.78298138051 4110 94.672484524253 295951.28751576 227749666.70332 30986527469733
418	23799444 193777 752532 327324547 5.050304000245 4855.78298138051 4110 0.29585151413829 923.84793805595 708292.77177117 301388822.66339
423	23993221 59238 1209001 326764483 5.158988127725 4850.964289844356 1257 5.9792813647445 289392.21587967 43113428.068811 5430572676148.4
424	24052459 59336 1209001 326764483 5.158988127725 4850.964289844356 1257 0.018685254264827 904.35067462396 134696.26974605 53007375.429284
425	24111795 64026 910437 327326155 7.365800539305 4852.02397040282 1358 5.1413972247102 10826050.7204 1617084517.3682 7.6831950647556e+15
426	24175821 64240 910437 327326155 7.365800539305 4852.02397040282 1358 0.022952666181742 902.67658471121 135437.85237384 53739046.537133
433	24240061 47245 2493470 327243703 33.516462693891 4854.844572053053 1001 14.573071828851 289340.06307429 37200373.231943 5119622759823.8
434	24287306 47321 2493470 327243703 33.516462693891 4854.844572053053 1001 0.045540849465159 904.18769710716 116224.53970212 49975977.423244
435	24334627 52243 910375 327310215 7.36580051736 4854.892739307275 1108 4.5099464156411 10872138.689678 1409567224.1557 7.3686411848031e+15
436	24386870 52466 910375 327310215 7.36580051736 4854.892739307275 1108 0.020133689355541 906.3193263293 118034.77730434 51478055.57136
443	24439336 54359 779713 327325141 5.748545020604 4833.840979679957 1151 6.6031767465407 288637.04545059 37600923.702792 4519327369563.6
444	24493695 54462 779713 327325141 5.748545020604 4833.840979679957 1151 0.02063492733294 901.99076703309 117472.18479872 44110707.129331
445	24548157 59174 781686 327326161 5.796712319004 4839.982653450077 1253 3.8457267113282 10822817.21537 1413235273.3355 6.388909705189e+15
446	24607331 59376 781686 327326161 5.796712319004 4839.982653450077 1253 0.01716842281843 901.99076703309 118444.65924366 44731804.247787
453	24666707 47729 1287622 325194759 7.579381316355 4818.811657823749 1009 11.702461037749 257053.02842383 30546930.570834 3436742891901.5
454	24714436 47842 1287622 325194759 7.579381316355 4818.811657823749 1009 0.036570190742965 803.29071382448 95430.736949504 33541053.902363
455	24762278 52975 910479 327326201 7.365800552215 4839.982653462843 1121 3.4195116536989 10097891.454715 1146355281.9338 4.844447982036e+15
456	24815253 53262 910479 327326201 7.365800552215 4839.982653462843 1121 0.015265677025442 841.51557779119 96135.04556665 33945229.365504
463	24868515 60126 771636 327394049 5.552746038797 4856.306282305512 1276 9.3917596032954 288879.37891578 41161206.737507 4964563193312.9
464	24928641 60272 771636 327394049 5.552746038797 4856.306282305512 1276 0.029349248760298 902.7480591118 128594.16473611 48454297.292235
465	24988913 64584 754673 327395502 5.112205217885 4856.354449619024 1371 5.6232052187731 10840613.158692 1537595209.5272 6.9959536417347e+15
466	25053497 64899 754673 327395502 5.112205217885 4856.354449619024 1371 0.025103594726666 903.40308423195 128863.52373303 48988569.627852
473	25118396 9655 1507775 326720242 9.454973996096 4843.019448090343 260 3.346777803357 128 12933.27905348 1135751.0035187
474	25128051 12724 1507775 326720242 9.454973996096 4843.019448090343 260 0.0087155671962423 0.33333333333333 33.680414201771 7.7023044400956
475	25140775 8867 910381 327326095 7.365800526263 4839.982653436891 188 2.6802292614844 457.83330551283 4973.3259599619 603531.42330904
476	25149642 9193 910381 327326095 7.365800526263 4839.982653436891 188 0.011965309203055 2.0438986853251 22.202348035544 12.02828888929
483	25158835 10176 959745 326724639 9.054322743117 4825.312866447218 274 4.484229228785 202.66666666667 13783.26608256 1226548.6864342
484	25169011 13404 959745 326724639 9.054322743117 4825.312866447218 274 0.011677680283294 0.66666666666667 36.032810978888 8.4839606978109
485	25182415 8871 910425 327326143 7.365800536512 4839.98265344714 188 2.6802292614844 457.83330551283 4973.3259599619 603531.42330904
486	25191286 9197 910425 327326143 7.365800536512 4839.98265344714 188 0.011965309203055 2.0438986853251 22.202348035544 12.02828888929
493	25200483 10315 1182208 324655755 7.89607914731 4791.458949095861 278 4.4266885010592 128 13847.398945818 1207599.8351286
494	25210798 13603 1182208 324655755 7.89607914731 4791.458949095861 278 0.011527834638175 0.33333333333333 36.060934754735 8.1895605138389
495	25224401 8858 910419 327326137 7.365800534105 4839.982653444733 188 2.6802292614844 457.83330551283 4973.3259599619 603531.42330904
496	25233259 9184 910419 327326137 7.365800534105 4839.982653444733 188 0.011965309203055 2.0438986853251 22.202348035544 12.02828888929
503	25242443 10272 1159267 327313581 10.177896431758 4850.169038902554 277 3.9390282142936 202.66666666667 13988.845544413 1247157.5228311
504	25252715 13535 1159267 327313581 10.177896431758 4850.169038902554 277 0.010257885974723 0.66666666666667 36.568174160798 8.623723314435
505	25266250 8872 910395 327326113 7.365800527952 4839.98265343858 188 2.6802292614844 457.80710559527 4973.2998794053 603507.43786476