file 31598668 1471643765                                        
version 2
run _18to20off-4-20160819-23:37:43-18765
attr configname _18to20off
attr datetime 20160819-23:37:43
attr experiment _18to20off
attr inifile omnetpp.ini
attr iterationvars $0=18
attr iterationvars2 "$0=18, $repetition=4"
attr measurement $0=18
attr network University
attr processid 18765
attr repetition 4
attr replication #4
attr resultdir /utmnt/ut/si/sinp1070
attr runnumber 4
attr seedset 4

vector 75  University.profLaptop.udpApp[0]  rcvdPk:vector(packetBytes)  ETV
attr interpolationmode  none
attr source  rcvdPk
attr title  "packets received, vector(packetBytes)"
vector 77  University.profLaptop.udpApp[0]  rcvdPkLifetime:vector  ETV
attr interpolationmode  none
attr source  messageAge(rcvdPk)
attr title  "received packet lifetime, vector"
attr unit  s
vector 76  University.profLaptop.udpApp[0]  sentPk:vector(packetBytes)  ETV
attr interpolationmode  none
attr source  sentPk
attr title  "packets sent, vector(packetBytes)"
vector 340  University.whostVideoConf.udpApp[0]  sentPk:vector(packetBytes)  ETV
attr interpolationmode  none
attr source  sentPk
attr title  "packets sent, vector(packetBytes)"
vector 411  University.profLaptop.ppp[0].outputHook[0]  "thruput (bit/sec)"  ETV
vector 412  University.profLaptop.ppp[0].outputHook[0]  packet/sec  ETV
vector 397  University.mainR.ppp[1].inputHook[0]  "thruput (bit/sec)"  ETV
vector 398  University.mainR.ppp[1].inputHook[0]  packet/sec  ETV
vector 395  University.mainR.ppp[1].outputHook[0]  "thruput (bit/sec)"  ETV
vector 396  University.mainR.ppp[1].outputHook[0]  packet/sec  ETV
vector 413  University.profLaptop.ppp[0].inputHook[0]  "thruput (bit/sec)"  ETV
vector 414  University.profLaptop.ppp[0].inputHook[0]  packet/sec  ETV
vector 603  University.whostVideoConf.wlan[0].outputHook[0]  "thruput (bit/sec)"  ETV
vector 604  University.whostVideoConf.wlan[0].outputHook[0]  packet/sec  ETV
vector 625  University.accessPoint.wlan[0].inputHook[0]  "thruput (bit/sec)"  ETV
vector 626  University.accessPoint.wlan[0].inputHook[0]  packet/sec  ETV
vector 633  University.accessPoint.eth[0].outputHook[0]  "thruput (bit/sec)"  ETV
vector 634  University.accessPoint.eth[0].outputHook[0]  packet/sec  ETV
vector 381  University.remoteR.eth[0].inputHook[0]  "thruput (bit/sec)"  ETV
vector 382  University.remoteR.eth[0].inputHook[0]  packet/sec  ETV
vector 387  University.remoteR.ppp[0].outputHook[0]  "thruput (bit/sec)"  ETV
vector 388  University.remoteR.ppp[0].outputHook[0]  packet/sec  ETV
vector 393  University.mainR.ppp[0].inputHook[0]  "thruput (bit/sec)"  ETV
vector 394  University.mainR.ppp[0].inputHook[0]  packet/sec  ETV
vector 379  University.remoteR.eth[0].outputHook[0]  "thruput (bit/sec)"  ETV
vector 380  University.remoteR.eth[0].outputHook[0]  packet/sec  ETV
vector 635  University.accessPoint.eth[0].inputHook[0]  "thruput (bit/sec)"  ETV
vector 636  University.accessPoint.eth[0].inputHook[0]  packet/sec  ETV
vector 623  University.accessPoint.wlan[0].outputHook[0]  "thruput (bit/sec)"  ETV
vector 624  University.accessPoint.wlan[0].outputHook[0]  packet/sec  ETV
vector 399  University.mainR.ppp[2].outputHook[0]  "thruput (bit/sec)"  ETV
vector 400  University.mainR.ppp[2].outputHook[0]  packet/sec  ETV
vector 417  University.Server.ppp[0].inputHook[0]  "thruput (bit/sec)"  ETV
vector 418  University.Server.ppp[0].inputHook[0]  packet/sec  ETV
vector 415  University.Server.ppp[0].outputHook[0]  "thruput (bit/sec)"  ETV
vector 416  University.Server.ppp[0].outputHook[0]  packet/sec  ETV
vector 401  University.mainR.ppp[2].inputHook[0]  "thruput (bit/sec)"  ETV
vector 402  University.mainR.ppp[2].inputHook[0]  packet/sec  ETV
vector 445  University.whttpStudents[2].wlan[0].inputHook[0]  "thruput (bit/sec)"  ETV
vector 446  University.whttpStudents[2].wlan[0].inputHook[0]  packet/sec  ETV
vector 443  University.whttpStudents[2].wlan[0].outputHook[0]  "thruput (bit/sec)"  ETV
vector 444  University.whttpStudents[2].wlan[0].outputHook[0]  packet/sec  ETV
vector 391  University.mainR.ppp[0].outputHook[0]  "thruput (bit/sec)"  ETV
vector 392  University.mainR.ppp[0].outputHook[0]  packet/sec  ETV
vector 389  University.remoteR.ppp[0].inputHook[0]  "thruput (bit/sec)"  ETV
vector 390  University.remoteR.ppp[0].inputHook[0]  packet/sec  ETV
vector 222  University.whttpStudents[8].tcpApp[0]  numActiveSessions:vector  ETV
attr interpolationmode  sample-hold
attr source  sum(connect)
attr title  "number of active sessions, vector"
vector 294  University.whttpStudents[14].tcpApp[0]  numActiveSessions:vector  ETV
attr interpolationmode  sample-hold
attr source  sum(connect)
attr title  "number of active sessions, vector"
vector 475  University.whttpStudents[5].wlan[0].inputHook[0]  "thruput (bit/sec)"  ETV
vector 476  University.whttpStudents[5].wlan[0].inputHook[0]  packet/sec  ETV
vector 525  University.whttpStudents[10].wlan[0].inputHook[0]  "thruput (bit/sec)"  ETV
vector 526  University.whttpStudents[10].wlan[0].inputHook[0]  packet/sec  ETV
vector 435  University.whttpStudents[1].wlan[0].inputHook[0]  "thruput (bit/sec)"  ETV
vector 436  University.whttpStudents[1].wlan[0].inputHook[0]  packet/sec  ETV
vector 465  University.whttpStudents[4].wlan[0].inputHook[0]  "thruput (bit/sec)"  ETV
vector 466  University.whttpStudents[4].wlan[0].inputHook[0]  packet/sec  ETV
vector 545  University.whttpStudents[12].wlan[0].inputHook[0]  "thruput (bit/sec)"  ETV
vector 546  University.whttpStudents[12].wlan[0].inputHook[0]  packet/sec  ETV
vector 515  University.whttpStudents[9].wlan[0].inputHook[0]  "thruput (bit/sec)"  ETV
vector 516  University.whttpStudents[9].wlan[0].inputHook[0]  packet/sec  ETV
vector 575  University.whttpStudents[15].wlan[0].inputHook[0]  "thruput (bit/sec)"  ETV
vector 576  University.whttpStudents[15].wlan[0].inputHook[0]  packet/sec  ETV
vector 505  University.whttpStudents[8].wlan[0].inputHook[0]  "thruput (bit/sec)"  ETV
vector 506  University.whttpStudents[8].wlan[0].inputHook[0]  packet/sec  ETV
vector 605  University.whostVideoConf.wlan[0].inputHook[0]  "thruput (bit/sec)"  ETV
vector 606  University.whostVideoConf.wlan[0].inputHook[0]  packet/sec  ETV
vector 615  University.whostFTP.wlan[0].inputHook[0]  "thruput (bit/sec)"  ETV
vector 616  University.whostFTP.wlan[0].inputHook[0]  packet/sec  ETV
vector 495  University.whttpStudents[7].wlan[0].inputHook[0]  "thruput (bit/sec)"  ETV
vector 496  University.whttpStudents[7].wlan[0].inputHook[0]  packet/sec  ETV
vector 585  University.whttpStudents[16].wlan[0].inputHook[0]  "thruput (bit/sec)"  ETV
vector 586  University.whttpStudents[16].wlan[0].inputHook[0]  packet/sec  ETV
vector 535  University.whttpStudents[11].wlan[0].inputHook[0]  "thruput (bit/sec)"  ETV
vector 536  University.whttpStudents[11].wlan[0].inputHook[0]  packet/sec  ETV
vector 595  University.whttpStudents[17].wlan[0].inputHook[0]  "thruput (bit/sec)"  ETV
vector 596  University.whttpStudents[17].wlan[0].inputHook[0]  packet/sec  ETV
vector 455  University.whttpStudents[3].wlan[0].inputHook[0]  "thruput (bit/sec)"  ETV
vector 456  University.whttpStudents[3].wlan[0].inputHook[0]  packet/sec  ETV
vector 425  University.whttpStudents[0].wlan[0].inputHook[0]  "thruput (bit/sec)"  ETV
vector 426  University.whttpStudents[0].wlan[0].inputHook[0]  packet/sec  ETV
vector 485  University.whttpStudents[6].wlan[0].inputHook[0]  "thruput (bit/sec)"  ETV
vector 486  University.whttpStudents[6].wlan[0].inputHook[0]  packet/sec  ETV
vector 555  University.whttpStudents[13].wlan[0].inputHook[0]  "thruput (bit/sec)"  ETV
vector 556  University.whttpStudents[13].wlan[0].inputHook[0]  packet/sec  ETV
vector 565  University.whttpStudents[14].wlan[0].inputHook[0]  "thruput (bit/sec)"  ETV
vector 566  University.whttpStudents[14].wlan[0].inputHook[0]  packet/sec  ETV
vector 503  University.whttpStudents[8].wlan[0].outputHook[0]  "thruput (bit/sec)"  ETV
vector 504  University.whttpStudents[8].wlan[0].outputHook[0]  packet/sec  ETV
vector 563  University.whttpStudents[14].wlan[0].outputHook[0]  "thruput (bit/sec)"  ETV
vector 564  University.whttpStudents[14].wlan[0].outputHook[0]  packet/sec  ETV
vector 583  University.whttpStudents[16].wlan[0].outputHook[0]  "thruput (bit/sec)"  ETV
vector 584  University.whttpStudents[16].wlan[0].outputHook[0]  packet/sec  ETV
vector 198  University.whttpStudents[6].tcpApp[0]  numActiveSessions:vector  ETV
attr interpolationmode  sample-hold
attr source  sum(connect)
attr title  "number of active sessions, vector"
vector 523  University.whttpStudents[10].wlan[0].outputHook[0]  "thruput (bit/sec)"  ETV
vector 524  University.whttpStudents[10].wlan[0].outputHook[0]  packet/sec  ETV
vector 483  University.whttpStudents[6].wlan[0].outputHook[0]  "thruput (bit/sec)"  ETV
vector 484  University.whttpStudents[6].wlan[0].outputHook[0]  packet/sec  ETV
vector 138  University.whttpStudents[1].tcpApp[0]  numActiveSessions:vector  ETV
attr interpolationmode  sample-hold
attr source  sum(connect)
attr title  "number of active sessions, vector"
vector 136  University.whttpStudents[1].tcpApp[0]  sentPk:vector(packetBytes)  ETV
attr interpolationmode  none
attr source  sentPk
attr title  "packets sent, vector(packetBytes)"
vector 94  University.Server.tcpApp[0]  rcvdPk:vector(packetBytes)  ETV
attr interpolationmode  none
attr source  rcvdPk
attr title  "packets received, vector(packetBytes)"
vector 96  University.Server.tcpApp[0]  endToEndDelay:vector  ETV
attr interpolationmode  none
attr source  messageAge(rcvdPk)
attr title  "end-to-end delay, vector"
attr unit  s
vector 95  University.Server.tcpApp[0]  sentPk:vector(packetBytes)  ETV
attr interpolationmode  none
attr source  sentPk
attr title  "packets sent, vector(packetBytes)"
vector 433  University.whttpStudents[1].wlan[0].outputHook[0]  "thruput (bit/sec)"  ETV
vector 434  University.whttpStudents[1].wlan[0].outputHook[0]  packet/sec  ETV
vector 135  University.whttpStudents[1].tcpApp[0]  rcvdPk:vector(packetBytes)  ETV
attr interpolationmode  none
attr source  rcvdPk
attr title  "packets received, vector(packetBytes)"
vector 137  University.whttpStudents[1].tcpApp[0]  endToEndDelay:vector  ETV
attr interpolationmode  none
attr source  messageAge(rcvdPk)
attr title  "end-to-end delay, vector"
attr unit  s
vector 330  University.whttpStudents[17].tcpApp[0]  numActiveSessions:vector  ETV
attr interpolationmode  sample-hold
attr source  sum(connect)
attr title  "number of active sessions, vector"
vector 613  University.whostFTP.wlan[0].outputHook[0]  "thruput (bit/sec)"  ETV
vector 614  University.whostFTP.wlan[0].outputHook[0]  packet/sec  ETV
vector 513  University.whttpStudents[9].wlan[0].outputHook[0]  "thruput (bit/sec)"  ETV
vector 514  University.whttpStudents[9].wlan[0].outputHook[0]  packet/sec  ETV
vector 543  University.whttpStudents[12].wlan[0].outputHook[0]  "thruput (bit/sec)"  ETV
vector 544  University.whttpStudents[12].wlan[0].outputHook[0]  packet/sec  ETV
vector 573  University.whttpStudents[15].wlan[0].outputHook[0]  "thruput (bit/sec)"  ETV
vector 574  University.whttpStudents[15].wlan[0].outputHook[0]  packet/sec  ETV
vector 186  University.whttpStudents[5].tcpApp[0]  numActiveSessions:vector  ETV
attr interpolationmode  sample-hold
attr source  sum(connect)
attr title  "number of active sessions, vector"
vector 593  University.whttpStudents[17].wlan[0].outputHook[0]  "thruput (bit/sec)"  ETV
vector 594  University.whttpStudents[17].wlan[0].outputHook[0]  packet/sec  ETV
vector 282  University.whttpStudents[13].tcpApp[0]  numActiveSessions:vector  ETV
attr interpolationmode  sample-hold
attr source  sum(connect)
attr title  "number of active sessions, vector"
vector 473  University.whttpStudents[5].wlan[0].outputHook[0]  "thruput (bit/sec)"  ETV
vector 474  University.whttpStudents[5].wlan[0].outputHook[0]  packet/sec  ETV
vector 553  University.whttpStudents[13].wlan[0].outputHook[0]  "thruput (bit/sec)"  ETV
vector 554  University.whttpStudents[13].wlan[0].outputHook[0]  packet/sec  ETV
vector 126  University.whttpStudents[0].tcpApp[0]  numActiveSessions:vector  ETV
attr interpolationmode  sample-hold
attr source  sum(connect)
attr title  "number of active sessions, vector"
vector 124  University.whttpStudents[0].tcpApp[0]  sentPk:vector(packetBytes)  ETV
attr interpolationmode  none
attr source  sentPk
attr title  "packets sent, vector(packetBytes)"
vector 423  University.whttpStudents[0].wlan[0].outputHook[0]  "thruput (bit/sec)"  ETV
vector 424  University.whttpStudents[0].wlan[0].outputHook[0]  packet/sec  ETV
vector 123  University.whttpStudents[0].tcpApp[0]  rcvdPk:vector(packetBytes)  ETV
attr interpolationmode  none
attr source  rcvdPk
attr title  "packets received, vector(packetBytes)"
vector 125  University.whttpStudents[0].tcpApp[0]  endToEndDelay:vector  ETV
attr interpolationmode  none
attr source  messageAge(rcvdPk)
attr title  "end-to-end delay, vector"
attr unit  s
vector 174  University.whttpStudents[4].tcpApp[0]  numActiveSessions:vector  ETV
attr interpolationmode  sample-hold
attr source  sum(connect)
attr title  "number of active sessions, vector"
vector 172  University.whttpStudents[4].tcpApp[0]  sentPk:vector(packetBytes)  ETV
attr interpolationmode  none
attr source  sentPk
attr title  "packets sent, vector(packetBytes)"
vector 463  University.whttpStudents[4].wlan[0].outputHook[0]  "thruput (bit/sec)"  ETV
vector 464  University.whttpStudents[4].wlan[0].outputHook[0]  packet/sec  ETV
vector 171  University.whttpStudents[4].tcpApp[0]  rcvdPk:vector(packetBytes)  ETV
attr interpolationmode  none
attr source  rcvdPk
attr title  "packets received, vector(packetBytes)"
vector 173  University.whttpStudents[4].tcpApp[0]  endToEndDelay:vector  ETV
attr interpolationmode  none
attr source  messageAge(rcvdPk)
attr title  "end-to-end delay, vector"
attr unit  s
vector 147  University.whttpStudents[2].tcpApp[0]  rcvdPk:vector(packetBytes)  ETV
attr interpolationmode  none
attr source  rcvdPk
attr title  "packets received, vector(packetBytes)"
vector 149  University.whttpStudents[2].tcpApp[0]  endToEndDelay:vector  ETV
attr interpolationmode  none
attr source  messageAge(rcvdPk)
attr title  "end-to-end delay, vector"
attr unit  s
vector 150  University.whttpStudents[2].tcpApp[0]  numActiveSessions:vector  ETV
attr interpolationmode  sample-hold
attr source  sum(connect)
attr title  "number of active sessions, vector"
vector 258  University.whttpStudents[11].tcpApp[0]  numActiveSessions:vector  ETV
attr interpolationmode  sample-hold
attr source  sum(connect)
attr title  "number of active sessions, vector"
vector 533  University.whttpStudents[11].wlan[0].outputHook[0]  "thruput (bit/sec)"  ETV
vector 534  University.whttpStudents[11].wlan[0].outputHook[0]  packet/sec  ETV
vector 148  University.whttpStudents[2].tcpApp[0]  sentPk:vector(packetBytes)  ETV
attr interpolationmode  none
attr source  sentPk
attr title  "packets sent, vector(packetBytes)"
vector 210  University.whttpStudents[7].tcpApp[0]  numActiveSessions:vector  ETV
attr interpolationmode  sample-hold
attr source  sum(connect)
attr title  "number of active sessions, vector"
vector 493  University.whttpStudents[7].wlan[0].outputHook[0]  "thruput (bit/sec)"  ETV
vector 494  University.whttpStudents[7].wlan[0].outputHook[0]  packet/sec  ETV
vector 358  University.whostFTP.tcpApp[0]  numActiveSessions:vector  ETV
attr interpolationmode  sample-hold
attr source  sum(connect)
attr title  "number of active sessions, vector"
vector 270  University.whttpStudents[12].tcpApp[0]  numActiveSessions:vector  ETV
attr interpolationmode  sample-hold
attr source  sum(connect)
attr title  "number of active sessions, vector"
vector 234  University.whttpStudents[9].tcpApp[0]  numActiveSessions:vector  ETV
attr interpolationmode  sample-hold
attr source  sum(connect)
attr title  "number of active sessions, vector"
vector 306  University.whttpStudents[15].tcpApp[0]  numActiveSessions:vector  ETV
attr interpolationmode  sample-hold
attr source  sum(connect)
attr title  "number of active sessions, vector"
vector 246  University.whttpStudents[10].tcpApp[0]  numActiveSessions:vector  ETV
attr interpolationmode  sample-hold
attr source  sum(connect)
attr title  "number of active sessions, vector"
vector 162  University.whttpStudents[3].tcpApp[0]  numActiveSessions:vector  ETV
attr interpolationmode  sample-hold
attr source  sum(connect)
attr title  "number of active sessions, vector"
vector 160  University.whttpStudents[3].tcpApp[0]  sentPk:vector(packetBytes)  ETV
attr interpolationmode  none
attr source  sentPk
attr title  "packets sent, vector(packetBytes)"
vector 453  University.whttpStudents[3].wlan[0].outputHook[0]  "thruput (bit/sec)"  ETV
vector 454  University.whttpStudents[3].wlan[0].outputHook[0]  packet/sec  ETV
vector 318  University.whttpStudents[16].tcpApp[0]  numActiveSessions:vector  ETV
attr interpolationmode  sample-hold
attr source  sum(connect)
attr title  "number of active sessions, vector"
vector 159  University.whttpStudents[3].tcpApp[0]  rcvdPk:vector(packetBytes)  ETV
attr interpolationmode  none
attr source  rcvdPk
attr title  "packets received, vector(packetBytes)"
vector 161  University.whttpStudents[3].tcpApp[0]  endToEndDelay:vector  ETV
attr interpolationmode  none
attr source  messageAge(rcvdPk)
attr title  "end-to-end delay, vector"
attr unit  s
75	17326 4176374 468644 234023183 5.013667728108 4741.053351746745 118402 1400 1400 165762800 232067920000
76	4193700 4177710 471562 234021412 5.021889290129 4741.021889290129 118401 1400 1400 165761400 232065960000
77	8371410 5358806 468644 234021396 5.013667728108 4741.013351746745 118401 0.016345620383 0.147109475938 1955.6009009252 32.435474200665
94	13730216 28447 611328 234015826 18.253128363581 4740.570269621894 881 1 1 881 881
95	13758663 32980 611328 234015826 18.253128363581 4740.570269621894 881 1002 6406823 720912789 1.2448977697744e+15
96	13791643 39895 611328 234015826 18.253128363581 4740.570269621894 881 0.113174267787 0.11725952996 99.783822488534 11.301804502843
123	13831538 7066 913721 233631212 31.111754434285 4733.887365482327 184 6828 6406823 156878836 2.8261567543175e+14
124	13838604 6151 740607 234014129 29.223162866809 4740.457095287252 185 1 1 185 185
125	13844755 8535 913721 233631212 31.111754434285 4733.887365482327 184 0.582135091702 49.520773475693 1971.0877045693 55943.703897739
126	13853290 12266 738134 234012259 29.029696659559 4740.265232156714 369 0 1 185 185
135	13865556 6749 652070 233490805 19.509161382064 4730.027306954288 176 1002 4645647 140999776 2.5112269945381e+14
136	13872305 5885 609660 233696305 18.139927095794 4737.813566546952 177 1 1 177 177
137	13878190 8174 652070 233490805 19.509161382064 4730.027306954288 176 0.193592358109 74.069177552619 1908.2735404145 62134.892707333
138	13886364 11743 607205 233694750 17.946460977684 4737.621703460984 353 0 1 177 177
147	13898107 7032 1011424 233295413 37.307152590139 4717.192718669988 183 5426 4277024 141774318 2.2299385684096e+14
148	13905139 6060 1214128 231082619 54.695690617387 4676.966976376743 182 1 1 182 182
149	13911199 8507 1011424 233295413 37.307152590139 4717.192718669988 183 0.580789628359 84.970300749908 1854.1296628843 55805.170325907
150	13919706 12330 1011424 233295413 37.307152590139 4717.192718669988 365 -1 0 -183 183
159	13932036 6429 4595104 233636951 113.368948956407 4734.404945907588 167 8740 5842069 136327762 2.3558720575852e+14
160	13938465 5561 2698112 232869518 85.298999621827 4711.835529066457 167 1 1 167 167
161	13944026 7772 4595104 233636951 113.368948956407 4734.404945907588 167 0.583216741868 73.166487198825 1903.9426981905 58868.746065721
162	13951798 11126 2695765 233636951 85.107136494589 4734.404945907588 334 0 1 167 167
171	13962924 6535 1004501 233689496 36.614627176243 4737.03946533302 170 6453 5259834 145215033 2.53480481801e+14
172	13969459 5654 951513 233647036 35.216754245059 4735.664654675018 170 1 1 170 170
173	13975113 7901 1004501 233689496 36.614627176243 4737.03946533302 170 0.582105919511 56.070349185121 1836.8304972359 51004.279145894
174	13983014 11304 949083 233689496 35.023297106685 4737.03946533302 340 0 1 170 170
186	13994318 1766 681769 230018278 22.669901653632 4651.041051761948 52 1 52 1378 48230
198	13996084 1839 561970 232683716 12.741980329155 4708.214017437631 54 1 54 1485 53955
210	13997923 1838 1582196 233697590 61.475897235917 4737.93823794631 54 1 54 1485 53955
222	13999761 1798 514493 232285834 7.457938858888 4698.193921314404 53 1 53 1431 51039
234	14001559 1840 2659548 233320088 81.788146909368 4719.907192555002 54 1 54 1485 53955
246	14003399 1840 2686471 232591284 84.286702988198 4701.769717409999 54 1 54 1485 53955
258	14005239 1838 1076415 230414636 47.077755163083 4663.689385992092 54 1 54 1485 53955
270	14007077 1806 2629462 233506221 78.935652077271 4731.635486526142 53 1 53 1431 51039
282	14008883 1801 686871 232134491 23.148151801315 4693.308858009983 53 1 53 1431 51039
294	14010684 1766 527201 233519912 8.868316753409 4732.792285674253 52 1 52 1378 48230
306	14012450 1809 2660162 233220988 81.839806092821 4715.823719454513 53 1 53 1431 51039
318	14014259 1771 3063392 233382939 88.154731150168 4727.271734268602 52 1 52 1378 48230
330	14016030 1761 656287 233637651 19.828972135772 4734.442050419389 52 1 52 1378 48230
340	14017791 4296111 476846 234021460 5.037006126362 4741.037006126362 118401 1400 1400 165761400 232065960000
358	18313902 1334 2588327 233363675 75 4725 63 1 63 2016 85344
379	18315236 190301 503938 234021649 5.180737772859 4740.006827580609 4049 37.511865050925 10517366.647228 5684636950.6997 2.6067745165089e+16
380	18505537 190545 503938 234021649 5.180737772859 4740.006827580609 4049 0.13530345710743 880.96303109998 477571.43822284 182077992.77289
381	18696082 190269 502715 234013405 5.037435680997 4739.357395080079 4719 276694.3724566 567889.12574436 1509094093.2208 4.9664935352944e+14
382	18886351 176444 502715 234013405 5.037435680997 4739.357395080079 4719 25 880.99854303985 621248.70675179 217284001.58992
387	19062795 190274 502717 234013407 5.037435680997 4739.357395080079 4719 276694.3724566 567889.12574436 1509050795.2481 4.9662176585189e+14
388	19253069 176447 502717 234013407 5.037435680997 4739.357395080079 4719 25 880.99854303985 621055.43336119 217234339.76375
389	19429516 190255 508905 234021647 5.650297362699 4740.006827580609 4048 43.297106274377 10517366.647228 5684386888.9686 2.6063605547341e+16
390	19619771 190488 508905 234021647 5.650297362699 4740.006827580609 4048 0.13530345710743 880.96303109998 477376.23101839 182007101.56892
391	19810259 189280 508893 234012457 5.639292696033 4739.157699301462 4027 41.158581013911 13748108.890187 6043931824.8091 3.276293694765e+16
392	19999539 189502 508893 234012457 5.639292696033 4739.157699301462 4027 0.12862056566847 1147.7198695131 507356.32621476 228610648.94812
393	20189041 190400 503140 234010706 5.049134515097 4739.088351746745 4719 277454.00632443 567124.99763582 1509049728.7077 4.9655973004942e+14
394	20379441 176598 503140 234010706 5.049134515097 4739.088351746745 4719 25 887.65543361885 621046.00562155 216482588.95043
395	20556039 181317 502241 234021429 5.026889290129 4740.026889290129 4736 285376 308224 1405644800 4.1719615968666e+14
396	20737356 162373 502241 234021429 5.026889290129 4740.026889290129 4736 49 51 236800 11840006
397	20899729 181317 502238 234021426 5.026889290129 4740.026889290129 4736 285600 285600 1352601600 3.8630301696e+14
398	21081046 162373 502238 234021426 5.026889290129 4740.026889290129 4736 25 25 118400 2960000
399	21243419 199699 504499 234023139 5.191567086245 4739.986254081039 4247 151.58134317926 277249.98926536 157961939.56029 18396095845740
400	21443118 199736 504499 234023139 5.191567086245 4739.986254081039 4247 0.47369169743518 865.20731486322 490291.58785709 178884566.33915
401	21642854 196501 507228 234012455 5.445705255487 4739.157699301462 4180 113.63880126762 13323249.708418 6066236878.624 3.2312400524311e+16
402	21839355 196611 507228 234012455 5.445705255487 4739.157699301462 4180 0.32283750360119 1114.1505176235 515170.67899619 226862112.97736
411	22035966 181317 502227 234021415 5.021889290129 4740.021889290129 4736 285600 285600 1352601600 3.8630301696e+14
412	22217283 162373 502227 234021415 5.021889290129 4740.021889290129 4736 25 25 118400 2960000
413	22379656 181317 502247 234021456 5.031889290129 4740.031889290129 4736 285376 308224 1405644800 4.1719615968666e+14
414	22560973 162373 502247 234021456 5.031889290129 4740.031889290129 4736 49 51 236800 11840006
415	22723346 196685 506709 234011929 5.376320124568 4739.088314170543 4180 113.63880126762 13463428.152178 6176113247.7061 3.3373257790298e+16
416	22920031 196781 506709 234011929 5.376320124568 4739.088314170543 4180 0.32283750360119 1126.3112737314 524336.49149654 234285744.42867
417	23116812 199824 505049 234010720 5.29393541582 4739.088314170543 4246 151.58129722547 277249.98926536 157926208.17985 18394818553953
418	23316636 199861 505049 234010720 5.29393541582 4739.088314170543 4246 0.47369155382958 865.20731486322 490181.45650319 178872431.94069
423	23516497 88270 755784 234012262 29.029696659559 4733.10797442009 1871 5.4689691865202 264406.90865767 30205159.353718 3212980326634.5
424	23604767 88439 755784 234012262 29.029696659559 4733.10797442009 1871 0.017090528707876 826.27158955522 94364.825070506 31376156.322663
425	23693206 90269 527522 234014125 7.459098920721 4735.664186649963 1913 3.9362161166213 8083142.0986985 1068089932.7621 4.8541483822188e+15
426	23783475 90459 527522 234014125 7.459098920721 4735.664186649963 1913 0.017572393377774 674.32911136633 89580.637512839 33764641.019981
433	23873934 82123 624626 234019594 17.946460977684 4739.782145789745 1743 6.1453628581046 214818.13855276 27436259.868444 2863019802181.6
434	23956057 82185 624626 234019594 17.946460977684 4739.782145789745 1743 0.019204258931577 671.30668297737 85713.376716099 27958676.663536
435	24038242 84655 527438 233970133 7.459098898436 4738.975524681564 1798 5.0957418860492 8419707.2393765 980327475.24368 4.3728319772405e+15
436	24122897 84878 527438 233970133 7.459098898436 4738.975524681564 1798 0.022748847705577 702.34664231203 82227.264782207 30420933.97926
443	24207775 80391 507299 233284037 5.457118072179 4715.82513679781 1707 4.4903402412826 261502.48006568 27080571.292377 2788365598322.9
444	24288166 80542 507299 233284037 5.457118072179 4715.82513679781 1707 0.014032313254008 817.19525020525 84601.199316567 27230679.056675
445	24368708 83031 507295 233646701 5.457118072179 4733.567063483885 1762 2.8104449407452 8895250.8370061 950875794.07949 4.142441388167e+15
446	24451739 83166 507295 233646701 5.457118072179 4733.567063483885 1762 0.012546629199755 741.27090308384 79798.831488717 28826796.453448
453	24534905 82534 2715028 233627225 85.107136494589 4732.738724321751 1752 8.2322972445481 235754.03353881 26296859.394961 2750466414791.4
454	24617439 82685 2715028 233627225 85.107136494589 4732.738724321751 1752 0.025725928889213 736.73135480878 82154.586729011 26859855.153108
455	24700124 83878 527516 233646777 7.459098919071 4734.597682186785 1807 5.3182144521312 8840776.2577053 935265429.63377 4.1745206799688e+15
456	24784002 85308 527516 233646777 7.459098919071 4734.597682186785 1807 0.023742028804157 736.73135480878 78467.227895167 29045569.014972
463	24869310 81265 966570 233660400 35.023297106685 4735.471330275258 1742 7.1976944528062 219637.20235998 28028790.841012 2933613439170.7
464	24950575 82030 966570 233660400 35.023297106685 4735.471330275258 1742 0.022492795165019 686.36625737494 87566.476543013 28648228.514009
465	25032605 84272 527450 233668458 7.459098903502 4735.664186632744 1793 3.7956999317789 7908575.2113382 998695314.52963 4.4881522535579e+15
466	25116877 84483 527450 233668458 7.459098903502 4735.664186632744 1793 0.016945088981156 659.5025488775 83753.765520216 31223552.863914
473	25201360 9567 709204 232258838 22.669901653632 4672.041051761948 259 3.1750230548739 202.66666666667 13023.839244053 1160818.5827568
474	25210927 12621 709204 232258838 22.669901653632 4672.041051761948 259 0.0082682892054008 0.66666666666667 34.055136920278 8.0381999035581
475	25223548 8859 527426 233646683 7.459098892244 4733.567063473737 189 2.6338508412269 165.51651308097 4609.9301711311 305693.04433237
476	25232407 9183 527426 233646683 7.459098892244 4733.567063473737 189 0.011758262684049 0.73891300482576 20.580045406835 6.0924155837925
483	25241590 9927 588257 233406767 12.741980329155 4717.214017437631 268 4.1811105335993 202.66666666667 13516.640514062 1204409.240187
484	25251517 13084 588257 233406767 12.741980329155 4717.214017437631 268 0.010888308681248 0.66666666666667 35.338473560924 8.3338179688122
485	25264601 8860 527530 233646795 7.45909892105 4733.567063502543 189 2.6338508412269 165.51651308097 4609.9308626461 305693.17031101
486	25273461 9186 527530 233646795 7.45909892105 4733.567063502543 189 0.011758262684049 0.73891300482576 20.580048493956 6.0924180945275
493	25282647 9854 1750914 234020643 61.475897235917 4737.93823794631 266 3.9458509058599 202.66666666667 13434.763451329 1199596.8552711
494	25292501 12980 1750914 234020643 61.475897235917 4737.93823794631 266 0.010275653400677 0.66666666666667 35.12525204339 8.301181894893
495	25305481 8859 527492 233646753 7.459098908284 4733.567063489777 189 2.6338508412269 165.51651308097 4609.9313456271 305693.25304802
496	25314340 9184 527492 233646753 7.459098908284 4733.567063489777 189 0.011758262684049 0.73891300482576 20.580050650121 6.0924197434635
503	25323524 9715 542045 233313737 7.457938858888 4707.193921314404 263 3.4798668616208 202.66666666667 13257.638258162 1182388.7820029
504	25333239 12812 542045 233313737 7.457938858888 4707.193921314404 263 0.0090621532854709 0.66666666666667 34.663988519519 8.1844821792613