file 30512694 1471642932                                        
version 2
run _18to20off-2-20160819-23:16:55-18455
attr configname _18to20off
attr datetime 20160819-23:16:55
attr experiment _18to20off
attr inifile omnetpp.ini
attr iterationvars $0=18
attr iterationvars2 "$0=18, $repetition=2"
attr measurement $0=18
attr network University
attr processid 18455
attr repetition 2
attr replication #2
attr resultdir /utmnt/ut/si/sinp1070
attr runnumber 2
attr seedset 2

vector 76  University.profLaptop.udpApp[0]  sentPk:vector(packetBytes)  ETV
attr interpolationmode  none
attr source  sentPk
attr title  "packets sent, vector(packetBytes)"
vector 340  University.whostVideoConf.udpApp[0]  sentPk:vector(packetBytes)  ETV
attr interpolationmode  none
attr source  sentPk
attr title  "packets sent, vector(packetBytes)"
vector 75  University.profLaptop.udpApp[0]  rcvdPk:vector(packetBytes)  ETV
attr interpolationmode  none
attr source  rcvdPk
attr title  "packets received, vector(packetBytes)"
vector 77  University.profLaptop.udpApp[0]  rcvdPkLifetime:vector  ETV
attr interpolationmode  none
attr source  messageAge(rcvdPk)
attr title  "received packet lifetime, vector"
attr unit  s
vector 270  University.whttpStudents[12].tcpApp[0]  numActiveSessions:vector  ETV
attr interpolationmode  sample-hold
attr source  sum(connect)
attr title  "number of active sessions, vector"
vector 411  University.profLaptop.ppp[0].outputHook[0]  "thruput (bit/sec)"  ETV
vector 412  University.profLaptop.ppp[0].outputHook[0]  packet/sec  ETV
vector 397  University.mainR.ppp[1].inputHook[0]  "thruput (bit/sec)"  ETV
vector 398  University.mainR.ppp[1].inputHook[0]  packet/sec  ETV
vector 395  University.mainR.ppp[1].outputHook[0]  "thruput (bit/sec)"  ETV
vector 396  University.mainR.ppp[1].outputHook[0]  packet/sec  ETV
vector 603  University.whostVideoConf.wlan[0].outputHook[0]  "thruput (bit/sec)"  ETV
vector 604  University.whostVideoConf.wlan[0].outputHook[0]  packet/sec  ETV
vector 413  University.profLaptop.ppp[0].inputHook[0]  "thruput (bit/sec)"  ETV
vector 414  University.profLaptop.ppp[0].inputHook[0]  packet/sec  ETV
vector 625  University.accessPoint.wlan[0].inputHook[0]  "thruput (bit/sec)"  ETV
vector 626  University.accessPoint.wlan[0].inputHook[0]  packet/sec  ETV
vector 633  University.accessPoint.eth[0].outputHook[0]  "thruput (bit/sec)"  ETV
vector 634  University.accessPoint.eth[0].outputHook[0]  packet/sec  ETV
vector 381  University.remoteR.eth[0].inputHook[0]  "thruput (bit/sec)"  ETV
vector 382  University.remoteR.eth[0].inputHook[0]  packet/sec  ETV
vector 387  University.remoteR.ppp[0].outputHook[0]  "thruput (bit/sec)"  ETV
vector 388  University.remoteR.ppp[0].outputHook[0]  packet/sec  ETV
vector 393  University.mainR.ppp[0].inputHook[0]  "thruput (bit/sec)"  ETV
vector 394  University.mainR.ppp[0].inputHook[0]  packet/sec  ETV
vector 399  University.mainR.ppp[2].outputHook[0]  "thruput (bit/sec)"  ETV
vector 400  University.mainR.ppp[2].outputHook[0]  packet/sec  ETV
vector 417  University.Server.ppp[0].inputHook[0]  "thruput (bit/sec)"  ETV
vector 418  University.Server.ppp[0].inputHook[0]  packet/sec  ETV
vector 415  University.Server.ppp[0].outputHook[0]  "thruput (bit/sec)"  ETV
vector 416  University.Server.ppp[0].outputHook[0]  packet/sec  ETV
vector 401  University.mainR.ppp[2].inputHook[0]  "thruput (bit/sec)"  ETV
vector 402  University.mainR.ppp[2].inputHook[0]  packet/sec  ETV
vector 246  University.whttpStudents[10].tcpApp[0]  numActiveSessions:vector  ETV
attr interpolationmode  sample-hold
attr source  sum(connect)
attr title  "number of active sessions, vector"
vector 379  University.remoteR.eth[0].outputHook[0]  "thruput (bit/sec)"  ETV
vector 380  University.remoteR.eth[0].outputHook[0]  packet/sec  ETV
vector 635  University.accessPoint.eth[0].inputHook[0]  "thruput (bit/sec)"  ETV
vector 636  University.accessPoint.eth[0].inputHook[0]  packet/sec  ETV
vector 623  University.accessPoint.wlan[0].outputHook[0]  "thruput (bit/sec)"  ETV
vector 624  University.accessPoint.wlan[0].outputHook[0]  packet/sec  ETV
vector 435  University.whttpStudents[1].wlan[0].inputHook[0]  "thruput (bit/sec)"  ETV
vector 436  University.whttpStudents[1].wlan[0].inputHook[0]  packet/sec  ETV
vector 615  University.whostFTP.wlan[0].inputHook[0]  "thruput (bit/sec)"  ETV
vector 616  University.whostFTP.wlan[0].inputHook[0]  packet/sec  ETV
vector 605  University.whostVideoConf.wlan[0].inputHook[0]  "thruput (bit/sec)"  ETV
vector 606  University.whostVideoConf.wlan[0].inputHook[0]  packet/sec  ETV
vector 445  University.whttpStudents[2].wlan[0].inputHook[0]  "thruput (bit/sec)"  ETV
vector 446  University.whttpStudents[2].wlan[0].inputHook[0]  packet/sec  ETV
vector 475  University.whttpStudents[5].wlan[0].inputHook[0]  "thruput (bit/sec)"  ETV
vector 476  University.whttpStudents[5].wlan[0].inputHook[0]  packet/sec  ETV
vector 585  University.whttpStudents[16].wlan[0].inputHook[0]  "thruput (bit/sec)"  ETV
vector 586  University.whttpStudents[16].wlan[0].inputHook[0]  packet/sec  ETV
vector 485  University.whttpStudents[6].wlan[0].inputHook[0]  "thruput (bit/sec)"  ETV
vector 486  University.whttpStudents[6].wlan[0].inputHook[0]  packet/sec  ETV
vector 505  University.whttpStudents[8].wlan[0].inputHook[0]  "thruput (bit/sec)"  ETV
vector 506  University.whttpStudents[8].wlan[0].inputHook[0]  packet/sec  ETV
vector 455  University.whttpStudents[3].wlan[0].inputHook[0]  "thruput (bit/sec)"  ETV
vector 456  University.whttpStudents[3].wlan[0].inputHook[0]  packet/sec  ETV
vector 495  University.whttpStudents[7].wlan[0].inputHook[0]  "thruput (bit/sec)"  ETV
vector 496  University.whttpStudents[7].wlan[0].inputHook[0]  packet/sec  ETV
vector 575  University.whttpStudents[15].wlan[0].inputHook[0]  "thruput (bit/sec)"  ETV
vector 576  University.whttpStudents[15].wlan[0].inputHook[0]  packet/sec  ETV
vector 515  University.whttpStudents[9].wlan[0].inputHook[0]  "thruput (bit/sec)"  ETV
vector 516  University.whttpStudents[9].wlan[0].inputHook[0]  packet/sec  ETV
vector 465  University.whttpStudents[4].wlan[0].inputHook[0]  "thruput (bit/sec)"  ETV
vector 466  University.whttpStudents[4].wlan[0].inputHook[0]  packet/sec  ETV
vector 425  University.whttpStudents[0].wlan[0].inputHook[0]  "thruput (bit/sec)"  ETV
vector 426  University.whttpStudents[0].wlan[0].inputHook[0]  packet/sec  ETV
vector 545  University.whttpStudents[12].wlan[0].inputHook[0]  "thruput (bit/sec)"  ETV
vector 546  University.whttpStudents[12].wlan[0].inputHook[0]  packet/sec  ETV
vector 535  University.whttpStudents[11].wlan[0].inputHook[0]  "thruput (bit/sec)"  ETV
vector 536  University.whttpStudents[11].wlan[0].inputHook[0]  packet/sec  ETV
vector 595  University.whttpStudents[17].wlan[0].inputHook[0]  "thruput (bit/sec)"  ETV
vector 596  University.whttpStudents[17].wlan[0].inputHook[0]  packet/sec  ETV
vector 555  University.whttpStudents[13].wlan[0].inputHook[0]  "thruput (bit/sec)"  ETV
vector 556  University.whttpStudents[13].wlan[0].inputHook[0]  packet/sec  ETV
vector 565  University.whttpStudents[14].wlan[0].inputHook[0]  "thruput (bit/sec)"  ETV
vector 566  University.whttpStudents[14].wlan[0].inputHook[0]  packet/sec  ETV
vector 525  University.whttpStudents[10].wlan[0].inputHook[0]  "thruput (bit/sec)"  ETV
vector 526  University.whttpStudents[10].wlan[0].inputHook[0]  packet/sec  ETV
vector 138  University.whttpStudents[1].tcpApp[0]  numActiveSessions:vector  ETV
attr interpolationmode  sample-hold
attr source  sum(connect)
attr title  "number of active sessions, vector"
vector 136  University.whttpStudents[1].tcpApp[0]  sentPk:vector(packetBytes)  ETV
attr interpolationmode  none
attr source  sentPk
attr title  "packets sent, vector(packetBytes)"
vector 94  University.Server.tcpApp[0]  rcvdPk:vector(packetBytes)  ETV
attr interpolationmode  none
attr source  rcvdPk
attr title  "packets received, vector(packetBytes)"
vector 96  University.Server.tcpApp[0]  endToEndDelay:vector  ETV
attr interpolationmode  none
attr source  messageAge(rcvdPk)
attr title  "end-to-end delay, vector"
attr unit  s
vector 95  University.Server.tcpApp[0]  sentPk:vector(packetBytes)  ETV
attr interpolationmode  none
attr source  sentPk
attr title  "packets sent, vector(packetBytes)"
vector 543  University.whttpStudents[12].wlan[0].outputHook[0]  "thruput (bit/sec)"  ETV
vector 544  University.whttpStudents[12].wlan[0].outputHook[0]  packet/sec  ETV
vector 282  University.whttpStudents[13].tcpApp[0]  numActiveSessions:vector  ETV
attr interpolationmode  sample-hold
attr source  sum(connect)
attr title  "number of active sessions, vector"
vector 135  University.whttpStudents[1].tcpApp[0]  rcvdPk:vector(packetBytes)  ETV
attr interpolationmode  none
attr source  rcvdPk
attr title  "packets received, vector(packetBytes)"
vector 137  University.whttpStudents[1].tcpApp[0]  endToEndDelay:vector  ETV
attr interpolationmode  none
attr source  messageAge(rcvdPk)
attr title  "end-to-end delay, vector"
attr unit  s
vector 174  University.whttpStudents[4].tcpApp[0]  numActiveSessions:vector  ETV
attr interpolationmode  sample-hold
attr source  sum(connect)
attr title  "number of active sessions, vector"
vector 391  University.mainR.ppp[0].outputHook[0]  "thruput (bit/sec)"  ETV
vector 392  University.mainR.ppp[0].outputHook[0]  packet/sec  ETV
vector 389  University.remoteR.ppp[0].inputHook[0]  "thruput (bit/sec)"  ETV
vector 390  University.remoteR.ppp[0].inputHook[0]  packet/sec  ETV
vector 172  University.whttpStudents[4].tcpApp[0]  sentPk:vector(packetBytes)  ETV
attr interpolationmode  none
attr source  sentPk
attr title  "packets sent, vector(packetBytes)"
vector 171  University.whttpStudents[4].tcpApp[0]  rcvdPk:vector(packetBytes)  ETV
attr interpolationmode  none
attr source  rcvdPk
attr title  "packets received, vector(packetBytes)"
vector 173  University.whttpStudents[4].tcpApp[0]  endToEndDelay:vector  ETV
attr interpolationmode  none
attr source  messageAge(rcvdPk)
attr title  "end-to-end delay, vector"
attr unit  s
vector 210  University.whttpStudents[7].tcpApp[0]  numActiveSessions:vector  ETV
attr interpolationmode  sample-hold
attr source  sum(connect)
attr title  "number of active sessions, vector"
vector 523  University.whttpStudents[10].wlan[0].outputHook[0]  "thruput (bit/sec)"  ETV
vector 524  University.whttpStudents[10].wlan[0].outputHook[0]  packet/sec  ETV
vector 553  University.whttpStudents[13].wlan[0].outputHook[0]  "thruput (bit/sec)"  ETV
vector 554  University.whttpStudents[13].wlan[0].outputHook[0]  packet/sec  ETV
vector 563  University.whttpStudents[14].wlan[0].outputHook[0]  "thruput (bit/sec)"  ETV
vector 564  University.whttpStudents[14].wlan[0].outputHook[0]  packet/sec  ETV
vector 593  University.whttpStudents[17].wlan[0].outputHook[0]  "thruput (bit/sec)"  ETV
vector 594  University.whttpStudents[17].wlan[0].outputHook[0]  packet/sec  ETV
vector 583  University.whttpStudents[16].wlan[0].outputHook[0]  "thruput (bit/sec)"  ETV
vector 584  University.whttpStudents[16].wlan[0].outputHook[0]  packet/sec  ETV
vector 306  University.whttpStudents[15].tcpApp[0]  numActiveSessions:vector  ETV
attr interpolationmode  sample-hold
attr source  sum(connect)
attr title  "number of active sessions, vector"
vector 493  University.whttpStudents[7].wlan[0].outputHook[0]  "thruput (bit/sec)"  ETV
vector 494  University.whttpStudents[7].wlan[0].outputHook[0]  packet/sec  ETV
vector 162  University.whttpStudents[3].tcpApp[0]  numActiveSessions:vector  ETV
attr interpolationmode  sample-hold
attr source  sum(connect)
attr title  "number of active sessions, vector"
vector 160  University.whttpStudents[3].tcpApp[0]  sentPk:vector(packetBytes)  ETV
attr interpolationmode  none
attr source  sentPk
attr title  "packets sent, vector(packetBytes)"
vector 186  University.whttpStudents[5].tcpApp[0]  numActiveSessions:vector  ETV
attr interpolationmode  sample-hold
attr source  sum(connect)
attr title  "number of active sessions, vector"
vector 433  University.whttpStudents[1].wlan[0].outputHook[0]  "thruput (bit/sec)"  ETV
vector 434  University.whttpStudents[1].wlan[0].outputHook[0]  packet/sec  ETV
vector 453  University.whttpStudents[3].wlan[0].outputHook[0]  "thruput (bit/sec)"  ETV
vector 454  University.whttpStudents[3].wlan[0].outputHook[0]  packet/sec  ETV
vector 573  University.whttpStudents[15].wlan[0].outputHook[0]  "thruput (bit/sec)"  ETV
vector 574  University.whttpStudents[15].wlan[0].outputHook[0]  packet/sec  ETV
vector 198  University.whttpStudents[6].tcpApp[0]  numActiveSessions:vector  ETV
attr interpolationmode  sample-hold
attr source  sum(connect)
attr title  "number of active sessions, vector"
vector 473  University.whttpStudents[5].wlan[0].outputHook[0]  "thruput (bit/sec)"  ETV
vector 474  University.whttpStudents[5].wlan[0].outputHook[0]  packet/sec  ETV
vector 222  University.whttpStudents[8].tcpApp[0]  numActiveSessions:vector  ETV
attr interpolationmode  sample-hold
attr source  sum(connect)
attr title  "number of active sessions, vector"
vector 483  University.whttpStudents[6].wlan[0].outputHook[0]  "thruput (bit/sec)"  ETV
vector 484  University.whttpStudents[6].wlan[0].outputHook[0]  packet/sec  ETV
vector 613  University.whostFTP.wlan[0].outputHook[0]  "thruput (bit/sec)"  ETV
vector 614  University.whostFTP.wlan[0].outputHook[0]  packet/sec  ETV
vector 503  University.whttpStudents[8].wlan[0].outputHook[0]  "thruput (bit/sec)"  ETV
vector 504  University.whttpStudents[8].wlan[0].outputHook[0]  packet/sec  ETV
vector 533  University.whttpStudents[11].wlan[0].outputHook[0]  "thruput (bit/sec)"  ETV
vector 534  University.whttpStudents[11].wlan[0].outputHook[0]  packet/sec  ETV
vector 159  University.whttpStudents[3].tcpApp[0]  rcvdPk:vector(packetBytes)  ETV
attr interpolationmode  none
attr source  rcvdPk
attr title  "packets received, vector(packetBytes)"
vector 161  University.whttpStudents[3].tcpApp[0]  endToEndDelay:vector  ETV
attr interpolationmode  none
attr source  messageAge(rcvdPk)
attr title  "end-to-end delay, vector"
attr unit  s
vector 234  University.whttpStudents[9].tcpApp[0]  numActiveSessions:vector  ETV
attr interpolationmode  sample-hold
attr source  sum(connect)
attr title  "number of active sessions, vector"
vector 513  University.whttpStudents[9].wlan[0].outputHook[0]  "thruput (bit/sec)"  ETV
vector 514  University.whttpStudents[9].wlan[0].outputHook[0]  packet/sec  ETV
vector 463  University.whttpStudents[4].wlan[0].outputHook[0]  "thruput (bit/sec)"  ETV
vector 464  University.whttpStudents[4].wlan[0].outputHook[0]  packet/sec  ETV
vector 126  University.whttpStudents[0].tcpApp[0]  numActiveSessions:vector  ETV
attr interpolationmode  sample-hold
attr source  sum(connect)
attr title  "number of active sessions, vector"
vector 124  University.whttpStudents[0].tcpApp[0]  sentPk:vector(packetBytes)  ETV
attr interpolationmode  none
attr source  sentPk
attr title  "packets sent, vector(packetBytes)"
vector 423  University.whttpStudents[0].wlan[0].outputHook[0]  "thruput (bit/sec)"  ETV
vector 424  University.whttpStudents[0].wlan[0].outputHook[0]  packet/sec  ETV
vector 150  University.whttpStudents[2].tcpApp[0]  numActiveSessions:vector  ETV
attr interpolationmode  sample-hold
attr source  sum(connect)
attr title  "number of active sessions, vector"
vector 148  University.whttpStudents[2].tcpApp[0]  sentPk:vector(packetBytes)  ETV
attr interpolationmode  none
attr source  sentPk
attr title  "packets sent, vector(packetBytes)"
vector 123  University.whttpStudents[0].tcpApp[0]  rcvdPk:vector(packetBytes)  ETV
attr interpolationmode  none
attr source  rcvdPk
attr title  "packets received, vector(packetBytes)"
vector 125  University.whttpStudents[0].tcpApp[0]  endToEndDelay:vector  ETV
attr interpolationmode  none
attr source  messageAge(rcvdPk)
attr title  "end-to-end delay, vector"
attr unit  s
vector 147  University.whttpStudents[2].tcpApp[0]  rcvdPk:vector(packetBytes)  ETV
attr interpolationmode  none
attr source  rcvdPk
attr title  "packets received, vector(packetBytes)"
vector 149  University.whttpStudents[2].tcpApp[0]  endToEndDelay:vector  ETV
attr interpolationmode  none
attr source  messageAge(rcvdPk)
attr title  "end-to-end delay, vector"
attr unit  s
vector 443  University.whttpStudents[2].wlan[0].outputHook[0]  "thruput (bit/sec)"  ETV
vector 444  University.whttpStudents[2].wlan[0].outputHook[0]  packet/sec  ETV
vector 358  University.whostFTP.tcpApp[0]  numActiveSessions:vector  ETV
attr interpolationmode  sample-hold
attr source  sum(connect)
attr title  "number of active sessions, vector"
vector 330  University.whttpStudents[17].tcpApp[0]  numActiveSessions:vector  ETV
attr interpolationmode  sample-hold
attr source  sum(connect)
attr title  "number of active sessions, vector"
vector 294  University.whttpStudents[14].tcpApp[0]  numActiveSessions:vector  ETV
attr interpolationmode  sample-hold
attr source  sum(connect)
attr title  "number of active sessions, vector"
vector 318  University.whttpStudents[16].tcpApp[0]  numActiveSessions:vector  ETV
attr interpolationmode  sample-hold
attr source  sum(connect)
attr title  "number of active sessions, vector"
vector 258  University.whttpStudents[11].tcpApp[0]  numActiveSessions:vector  ETV
attr interpolationmode  sample-hold
attr source  sum(connect)
attr title  "number of active sessions, vector"
75	17326 4326561 192375 319160881 5.023058540511 4894.983058540511 122249 1400 1400 171148600 239608040000
76	4343887 4328710 192157 319160903 5.001037049116 4895.001037049116 122251 1400 1400 171151400 239611960000
77	8672597 5547244 192375 319160881 5.023058540511 4894.983058540511 122249 0.016345607934 0.118124003621 2028.2476159006 33.864671123311
94	14219841 41707 216454 319160891 8.253561908535 4894.999581965662 1291 1 1 1291 1291
95	14261548 48353 216454 319160891 8.253561908535 4894.999581965662 1291 275 5101977 1024087895 1.6163394450679e+15
96	14309901 58236 216454 319160891 8.253561908535 4894.999581965662 1291 0.027990422986 0.036358092347 36.292340701861 1.0204635488863
123	14368137 9353 2690814 317715297 51.758728993618 4835.375925288981 243 5253 5101977 192830157 3.2183937215782e+14
124	14377490 8140 1963816 319160387 44.315314415625 4894.971537469038 244 1 1 244 244
125	14385630 11258 2690814 317715297 51.758728993618 4835.375925288981 243 0.135661653808 15.879316475457 897.22846671601 6733.4461325733
126	14396888 16245 1962793 319159778 44.270165590161 4894.927370720268 487 0 1 244 244
135	14413133 10538 321621 318276333 8.749889323897 4866.085082751949 274 275 4155496 201649200 3.0218797008181e+14
136	14423671 9130 215628 318122335 8.225544485549 4864.458812618938 274 1 1 274 274
137	14432801 12704 321621 318276333 8.749889323897 4866.085082751949 274 0.044719376146 13.405602558776 1006.3160636255 7748.1887253895
138	14445505 18285 214639 318276333 8.180422758269 4866.085082751949 548 0 1 274 274
147	14463790 10068 2696222 318892052 51.77399352951 4882.027737232195 262 1659 4485012 224451669 3.707415276875e+14
148	14473858 8711 2543216 318412123 51.325238933952 4874.70272678457 262 1 1 262 262
149	14482569 12113 2696222 318892052 51.77399352951 4882.027737232195 262 0.089716291279 22.193429191056 1067.1671407293 8532.2063561452
150	14494682 17419 2538787 318892052 51.281684191454 4882.027737232195 524 0 1 262 262
159	14512101 9491 1725254 319121234 26.566865347532 4889.212147351839 247 1087 3412088 196977135 3.0326733923804e+14
160	14521592 8207 401260 318918231 14.530150281694 4885.693504291237 247 1 1 247 247
161	14529799 11414 1725254 319121234 26.566865347532 4889.212147351839 247 0.045339311227 14.223838870485 947.07554788836 7316.1400528298
162	14541213 16430 400057 319121234 14.485010477134 4889.212147351839 494 0 1 247 247
171	14557643 10168 369483 318800976 10.34644795895 4879.535841262353 264 3705 4378219 208035145 3.1828232992386e+14
172	14567811 8797 332250 318712582 10.004108107156 4879.072763177594 264 1 1 264 264
173	14576608 12222 369483 318800976 10.34644795895 4879.535841262353 264 0.091876848382 15.448765270165 1000.6215547617 7929.8199667295
174	14588830 17600 331223 318800976 9.958950282964 4879.535841262353 528 0 1 264 264
186	14606430 1878 401884 317947091 14.558583872119 4842.35247195728 55 1 55 1540 56980
198	14608308 1840 919393 314507364 17.234032676059 4793.114293776868 54 1 54 1485 53955
210	14610148 1841 373776 318414816 10.81018441977 4874.831187092014 54 1 54 1485 53955
222	14611989 1911 995839 318910524 19.081324711905 4884.628524024241 56 1 56 1596 60116
234	14613900 1876 1742945 317954903 28.859691467554 4842.856398960386 55 1 55 1540 56980
246	14615776 1842 211608 319144191 7.846201878409 4892.624491862959 54 1 54 1485 53955
258	14617618 1847 3705558 318136725 88.208166954863 4864.703932486594 54 1 54 1485 53955
270	14619465 1908 193969 318902217 5.28636755979 4883.428614429022 56 1 56 1596 60116
282	14621373 1876 220366 319153220 8.382452641968 4893.939852285297 55 1 55 1540 56980
294	14623249 1850 3631931 318083845 83.103186431061 4858.670635741539 54 1 54 1485 53955
306	14625099 1810 393465 315512724 13.622803899593 4804.280333822481 53 1 53 1431 51039
318	14626909 1874 3704096 317179625 88.042792022482 4817.027653045065 55 1 55 1540 56980
330	14628783 1914 3614465 319149491 81.930941022738 4893.431418358635 56 1 56 1596 60116
340	14630697 4450961 192172 319160931 5.006712932577 4895.006712932577 122251 1400 1400 171151400 239611960000
358	19081658 1384 3338468 318436700 75 4875 65 1 65 2145 93665
379	19083042 161620 211710 319160304 5.286439401122 4888.805633664606 3424 24.36041496 11636848.007552 7880211991.3974 4.1858094855104e+16
380	19244662 161663 211710 319160304 5.286439401122 4888.805633664606 3424 0.1087518525 971.44635996631 661636.47936301 293709352.66743
381	19406325 202768 199801 319159491 5.047101873845 4893.887101873845 4869 277126.8444733 586989.31986338 1618619156.3719 5.5806046603435e+14
382	19609093 191122 199801 319159491 5.047101873845 4893.887101873845 4869 25 934.66640624734 833262.92699489 334444328.87293
387	19800215 202776 199803 319159493 5.047101873845 4893.887101873845 4869 277126.8444733 586989.31986338 1618575381.6639 5.5802837826925e+14
388	20002991 191130 199803 319159493 5.047101873845 4893.887101873845 4869 25 934.66640624734 833067.43529045 334335721.40199
389	20194121 161498 332168 319160302 8.225468511116 4888.805633664606 3421 70.524070717784 11636848.007552 7878708238.722 4.1860174717106e+16
390	20355619 161540 332168 319160302 8.225468511116 4888.805633664606 3421 0.22038772099308 971.44635996631 661343.56541286 293614560.37286
391	20517159 160662 332156 319160097 8.21543184445 4888.79462899794 3414 66.303220626438 12875055.753729 8701841039.8633 5.3331363215383e+16
392	20677821 160668 332156 319160097 8.21543184445 4888.79462899794 3414 0.20719756445762 1076.3219234302 730010.34114837 373707960.88707
393	20838489 202821 199970 319157768 5.058058540511 4893.618058540511 4869 276879.73464226 588206.69664653 1618615900.8763 5.5809020489294e+14
394	21041310 191189 199970 319157768 5.058058540511 4893.618058540511 4869 25 937.23882790626 833196.46737412 334884031.2706
395	21232499 187818 199250 319160927 5.006037049116 4894.006037049116 4890 285376 308224 1451340576 4.3075618891469e+14
396	21420317 168258 199250 319160927 5.006037049116 4894.006037049116 4890 49 51 244499 12224913
397	21588575 187818 199247 319160924 5.006037049116 4894.006037049116 4890 285600 285600 1396584000 3.988643904e+14
398	21776393 168258 199247 319160924 5.006037049116 4894.006037049116 4890 25 25 122250 3056250
399	21944651 189326 204432 319159981 5.29890987699 4893.441530867018 4014 130.28944888991 292176.70786857 221331713.31166 30019122257689
400	22133977 189453 204432 319159981 5.29890987699 4893.441530867018 4014 0.33463448122114 910.82763307327 688313.86313199 291952381.91648
401	22323430 187336 204746 319160095 5.322239473206 4893.464860463234 3982 109.39871609893 14561345.112906 8886862617.0586 5.3215498694419e+16
402	22510766 187404 204746 319160095 5.322239473206 4893.464860463234 3982 0.31079180709923 1215.8731728384 751661.59488388 375001160.96969
411	22698170 187818 199242 319160906 5.001037049116 4894.001037049116 4890 285600 285600 1396584000 3.988643904e+14
412	22885988 168258 199242 319160906 5.001037049116 4894.001037049116 4890 25 25 122250 3056250
413	23054246 187779 199628 319153950 5.011037049116 4893.011037049116 4889 285376 308224 1451043776 4.3066809867469e+14
414	23242025 168223 199628 319153950 5.011037049116 4893.011037049116 4889 49 51 244449 12222413
415	23410248 187947 204534 319160083 5.316095036678 4893.458716026706 3982 109.398726979 17320667.86846 8973371670.4794 5.4638013937475e+16
416	23598195 187992 204534 319160083 5.316095036678 4893.458716026706 3982 0.31079183800853 1443.4256411206 758877.72483522 384972944.93576
417	23786187 189391 204530 319160079 5.316095036678 4893.458716026706 4014 130.28941493924 292176.70786857 221331732.00693 30019128007320
418	23975578 189518 204530 319160079 5.316095036678 4893.458716026706 4014 0.33463451705482 910.82763307327 688313.92127728 291952437.71529
423	24165096 45867 2186031 319159781 44.270165590161 4835.227597884585 972 8.0370038456305 272844.60368611 34349456.229629 4259989020375.3
424	24210963 45991 2186031 319159781 44.270165590161 4835.227597884585 972 0.025115637017595 852.6393865191 107314.18119934 41581035.235443
425	24256954 51285 211919 319160383 5.287527620101 4885.693027248957 1087 3.9069851408442 10588728.421146 1295766511.0336 6.0786510603376e+15
426	24308239 51509 211919 319160383 5.287527620101 4885.693027248957 1087 0.017441897950197 882.91131647078 108562.1157948 42522736.023293
433	24359748 50082 604464 318267014 8.180422758269 4864.415257900524 1058 9.9847466468295 290728.75103849 35558470.573887 4301186845641.1
434	24409830 50184 604464 318267014 8.180422758269 4864.415257900524 1058 0.031202333271342 908.52734699528 111089.09479957 41980461.694866
435	24460014 55083 211841 318917867 5.287527595555 4867.580089597704 1164 4.0560622982451 10864448.312626 1350006879.814 6.1987347645361e+15
436	24515097 55276 211841 318917867 5.287527595555 4867.580089597704 1164 0.018107420974309 905.45055605342 113138.47043464 43385162.176349
443	24570373 52651 2752919 318859042 51.281684191454 4880.849954893244 1119 3.8541183534017 286992.40432845 40385360.669 5281362827816.9
444	24623024 52784 2752919 318859042 51.281684191454 4880.849954893244 1119 0.01204411985438 896.8512635264 126172.69397675 51550978.935882
445	24675808 57658 211859 318917885 5.287527607597 4881.895537709529 1225 4.2667869050484 10727881.125568 1507310429.5103 7.2986801934634e+15
446	24733466 57888 211859 318917885 5.287527607597 4881.895537709529 1225 0.019048155826109 894.09332244905 126232.52259307 51057816.685869
453	24791354 47299 629292 319114346 14.485010477134 4887.719343329078 1004 13.930172655674 288328.04472595 35074582.820814 4314135478681.7
454	24838653 47437 629292 319114346 14.485010477134 4887.719343329078 1004 0.043531789548982 901.02513976859 109580.69766265 42109052.966245
455	24886090 51574 211889 319114968 5.287527614875 4887.764622432798 1094 3.6279291966141 10705834.687436 1323564304.2345 6.1565873775365e+15
456	24937664 51782 211889 319114968 5.287527614875 4887.764622432798 1094 0.016196112484884 892.15289061967 110893.12388288 43086689.343927
463	24989446 50359 1803254 318711212 9.958950282964 4867.535825015062 1070 7.2846069206267 288932.16231219 36848203.560322 4729014172345.6
464	25039805 50606 1803254 318711212 9.958950282964 4867.535825015062 1070 0.022764396626958 902.91300722559 115120.63248781 46158793.601145
465	25090411 55065 211913 318917943 5.287527619783 4879.072763177594 1167 4.33155152394 10864466.588787 1375174630.6349 6.5712091040114e+15
466	25145476 55286 211913 318917943 5.287527619783 4879.072763177594 1167 0.019337283589018 905.62344460543 115236.27064767 45979638.772999
473	25200762 10176 934145 319092522 14.558583872119 4863.35247195728 274 3.9694484466511 202.66666666667 13778.860518796 1226455.6029202
474	25210938 13406 934145 319092522 14.558583872119 4863.35247195728 274 0.010337105329821 0.66666666666667 36.021338156586 8.4833294348312
475	25224344 8647 211865 318917891 5.287527609021 4867.58008961117 184 2.4692455132221 318.06910393256 4790.8304058849 469423.09645602
476	25232991 8975 211865 318917891 5.287527609021 4867.58008961117 184 0.011023417469741 1.4199513568418 21.387635740558 9.3555304618945
483	25241966 9966 1044802 317734291 17.234032676059 4814.114293776868 269 5.0417986291568 202.66666666667 13512.002841649 1204245.1994618
484	25251932 13140 1044802 317734291 17.234032676059 4814.114293776868 269 0.013129683930096 0.66666666666667 35.326396289017 8.3327054964464
485	25265072 8650 211877 318917903 5.28752761244 4867.580089614589 184 2.4692455132221 318.06910393256 4800.5706672505 470110.97337398
486	25273722 8979 211877 318917903 5.28752761244 4867.580089614589 184 0.011023417469741 1.4199513568418 21.431119050226 9.3692397435821
493	25282701 9902 395449 318904977 10.81018441977 4877.831187092014 267 4.1862201508717 202.66666666667 13456.549667682 1202874.7197768
494	25292603 13044 395449 318904977 10.81018441977 4877.831187092014 267 0.010901614976228 0.66666666666667 35.18198698181 8.3234113362566
495	25305647 8652 211895 318917925 5.2875276155 4867.580089617649 184 2.4692455132221 318.06910393256 4790.8304058849 469423.09645602
496	25314299 8980 211895 318917925 5.2875276155 4867.580089617649 184 0.011023417469741 1.4199513568418 21.387635740558 9.3555304618945
503	25323279 10292 1119961 319150979 19.081324711905 4887.628524024241 277 2.8614524617017 202.66666666667 13992.144100113 1247247.4044094
504	25333571 13550 1119961 319150979 19.081324711905 4887.628524024241 277 0.0074516991190148 0.66666666666667 36.576764149599 8.6243328628986
505	25347121 8651 211883 318917909 5.287527612955 4867.580089615104 184 2.4692455132221 318.06910393256 4790.8262187645 469422.04945011