file 32056798 1471642663                                        
version 2
run _18to20off-1-20160819-23:16:55-18454
attr configname _18to20off
attr datetime 20160819-23:16:55
attr experiment _18to20off
attr inifile omnetpp.ini
attr iterationvars $0=18
attr iterationvars2 "$0=18, $repetition=1"
attr measurement $0=18
attr network University
attr processid 18454
attr repetition 1
attr replication #1
attr resultdir /utmnt/ut/si/sinp1070
attr runnumber 1
attr seedset 1

vector 75  University.profLaptop.udpApp[0]  rcvdPk:vector(packetBytes)  ETV
attr interpolationmode  none
attr source  rcvdPk
attr title  "packets received, vector(packetBytes)"
vector 77  University.profLaptop.udpApp[0]  rcvdPkLifetime:vector  ETV
attr interpolationmode  none
attr source  messageAge(rcvdPk)
attr title  "received packet lifetime, vector"
attr unit  s
vector 340  University.whostVideoConf.udpApp[0]  sentPk:vector(packetBytes)  ETV
attr interpolationmode  none
attr source  sentPk
attr title  "packets sent, vector(packetBytes)"
vector 76  University.profLaptop.udpApp[0]  sentPk:vector(packetBytes)  ETV
attr interpolationmode  none
attr source  sentPk
attr title  "packets sent, vector(packetBytes)"
vector 282  University.whttpStudents[13].tcpApp[0]  numActiveSessions:vector  ETV
attr interpolationmode  sample-hold
attr source  sum(connect)
attr title  "number of active sessions, vector"
vector 603  University.whostVideoConf.wlan[0].outputHook[0]  "thruput (bit/sec)"  ETV
vector 604  University.whostVideoConf.wlan[0].outputHook[0]  packet/sec  ETV
vector 625  University.accessPoint.wlan[0].inputHook[0]  "thruput (bit/sec)"  ETV
vector 626  University.accessPoint.wlan[0].inputHook[0]  packet/sec  ETV
vector 633  University.accessPoint.eth[0].outputHook[0]  "thruput (bit/sec)"  ETV
vector 634  University.accessPoint.eth[0].outputHook[0]  packet/sec  ETV
vector 381  University.remoteR.eth[0].inputHook[0]  "thruput (bit/sec)"  ETV
vector 382  University.remoteR.eth[0].inputHook[0]  packet/sec  ETV
vector 387  University.remoteR.ppp[0].outputHook[0]  "thruput (bit/sec)"  ETV
vector 388  University.remoteR.ppp[0].outputHook[0]  packet/sec  ETV
vector 411  University.profLaptop.ppp[0].outputHook[0]  "thruput (bit/sec)"  ETV
vector 412  University.profLaptop.ppp[0].outputHook[0]  packet/sec  ETV
vector 397  University.mainR.ppp[1].inputHook[0]  "thruput (bit/sec)"  ETV
vector 398  University.mainR.ppp[1].inputHook[0]  packet/sec  ETV
vector 395  University.mainR.ppp[1].outputHook[0]  "thruput (bit/sec)"  ETV
vector 396  University.mainR.ppp[1].outputHook[0]  packet/sec  ETV
vector 393  University.mainR.ppp[0].inputHook[0]  "thruput (bit/sec)"  ETV
vector 394  University.mainR.ppp[0].inputHook[0]  packet/sec  ETV
vector 413  University.profLaptop.ppp[0].inputHook[0]  "thruput (bit/sec)"  ETV
vector 414  University.profLaptop.ppp[0].inputHook[0]  packet/sec  ETV
vector 162  University.whttpStudents[3].tcpApp[0]  numActiveSessions:vector  ETV
attr interpolationmode  sample-hold
attr source  sum(connect)
attr title  "number of active sessions, vector"
vector 160  University.whttpStudents[3].tcpApp[0]  sentPk:vector(packetBytes)  ETV
attr interpolationmode  none
attr source  sentPk
attr title  "packets sent, vector(packetBytes)"
vector 94  University.Server.tcpApp[0]  rcvdPk:vector(packetBytes)  ETV
attr interpolationmode  none
attr source  rcvdPk
attr title  "packets received, vector(packetBytes)"
vector 96  University.Server.tcpApp[0]  endToEndDelay:vector  ETV
attr interpolationmode  none
attr source  messageAge(rcvdPk)
attr title  "end-to-end delay, vector"
attr unit  s
vector 95  University.Server.tcpApp[0]  sentPk:vector(packetBytes)  ETV
attr interpolationmode  none
attr source  sentPk
attr title  "packets sent, vector(packetBytes)"
vector 379  University.remoteR.eth[0].outputHook[0]  "thruput (bit/sec)"  ETV
vector 380  University.remoteR.eth[0].outputHook[0]  packet/sec  ETV
vector 635  University.accessPoint.eth[0].inputHook[0]  "thruput (bit/sec)"  ETV
vector 636  University.accessPoint.eth[0].inputHook[0]  packet/sec  ETV
vector 623  University.accessPoint.wlan[0].outputHook[0]  "thruput (bit/sec)"  ETV
vector 624  University.accessPoint.wlan[0].outputHook[0]  packet/sec  ETV
vector 455  University.whttpStudents[3].wlan[0].inputHook[0]  "thruput (bit/sec)"  ETV
vector 456  University.whttpStudents[3].wlan[0].inputHook[0]  packet/sec  ETV
vector 399  University.mainR.ppp[2].outputHook[0]  "thruput (bit/sec)"  ETV
vector 400  University.mainR.ppp[2].outputHook[0]  packet/sec  ETV
vector 417  University.Server.ppp[0].inputHook[0]  "thruput (bit/sec)"  ETV
vector 418  University.Server.ppp[0].inputHook[0]  packet/sec  ETV
vector 415  University.Server.ppp[0].outputHook[0]  "thruput (bit/sec)"  ETV
vector 416  University.Server.ppp[0].outputHook[0]  packet/sec  ETV
vector 401  University.mainR.ppp[2].inputHook[0]  "thruput (bit/sec)"  ETV
vector 402  University.mainR.ppp[2].inputHook[0]  packet/sec  ETV
vector 453  University.whttpStudents[3].wlan[0].outputHook[0]  "thruput (bit/sec)"  ETV
vector 454  University.whttpStudents[3].wlan[0].outputHook[0]  packet/sec  ETV
vector 150  University.whttpStudents[2].tcpApp[0]  numActiveSessions:vector  ETV
attr interpolationmode  sample-hold
attr source  sum(connect)
attr title  "number of active sessions, vector"
vector 525  University.whttpStudents[10].wlan[0].inputHook[0]  "thruput (bit/sec)"  ETV
vector 526  University.whttpStudents[10].wlan[0].inputHook[0]  packet/sec  ETV
vector 465  University.whttpStudents[4].wlan[0].inputHook[0]  "thruput (bit/sec)"  ETV
vector 466  University.whttpStudents[4].wlan[0].inputHook[0]  packet/sec  ETV
vector 485  University.whttpStudents[6].wlan[0].inputHook[0]  "thruput (bit/sec)"  ETV
vector 486  University.whttpStudents[6].wlan[0].inputHook[0]  packet/sec  ETV
vector 495  University.whttpStudents[7].wlan[0].inputHook[0]  "thruput (bit/sec)"  ETV
vector 496  University.whttpStudents[7].wlan[0].inputHook[0]  packet/sec  ETV
vector 475  University.whttpStudents[5].wlan[0].inputHook[0]  "thruput (bit/sec)"  ETV
vector 476  University.whttpStudents[5].wlan[0].inputHook[0]  packet/sec  ETV
vector 545  University.whttpStudents[12].wlan[0].inputHook[0]  "thruput (bit/sec)"  ETV
vector 546  University.whttpStudents[12].wlan[0].inputHook[0]  packet/sec  ETV
vector 615  University.whostFTP.wlan[0].inputHook[0]  "thruput (bit/sec)"  ETV
vector 616  University.whostFTP.wlan[0].inputHook[0]  packet/sec  ETV
vector 515  University.whttpStudents[9].wlan[0].inputHook[0]  "thruput (bit/sec)"  ETV
vector 516  University.whttpStudents[9].wlan[0].inputHook[0]  packet/sec  ETV
vector 565  University.whttpStudents[14].wlan[0].inputHook[0]  "thruput (bit/sec)"  ETV
vector 566  University.whttpStudents[14].wlan[0].inputHook[0]  packet/sec  ETV
vector 595  University.whttpStudents[17].wlan[0].inputHook[0]  "thruput (bit/sec)"  ETV
vector 596  University.whttpStudents[17].wlan[0].inputHook[0]  packet/sec  ETV
vector 575  University.whttpStudents[15].wlan[0].inputHook[0]  "thruput (bit/sec)"  ETV
vector 576  University.whttpStudents[15].wlan[0].inputHook[0]  packet/sec  ETV
vector 585  University.whttpStudents[16].wlan[0].inputHook[0]  "thruput (bit/sec)"  ETV
vector 586  University.whttpStudents[16].wlan[0].inputHook[0]  packet/sec  ETV
vector 435  University.whttpStudents[1].wlan[0].inputHook[0]  "thruput (bit/sec)"  ETV
vector 436  University.whttpStudents[1].wlan[0].inputHook[0]  packet/sec  ETV
vector 505  University.whttpStudents[8].wlan[0].inputHook[0]  "thruput (bit/sec)"  ETV
vector 506  University.whttpStudents[8].wlan[0].inputHook[0]  packet/sec  ETV
vector 555  University.whttpStudents[13].wlan[0].inputHook[0]  "thruput (bit/sec)"  ETV
vector 556  University.whttpStudents[13].wlan[0].inputHook[0]  packet/sec  ETV
vector 535  University.whttpStudents[11].wlan[0].inputHook[0]  "thruput (bit/sec)"  ETV
vector 536  University.whttpStudents[11].wlan[0].inputHook[0]  packet/sec  ETV
vector 605  University.whostVideoConf.wlan[0].inputHook[0]  "thruput (bit/sec)"  ETV
vector 606  University.whostVideoConf.wlan[0].inputHook[0]  packet/sec  ETV
vector 425  University.whttpStudents[0].wlan[0].inputHook[0]  "thruput (bit/sec)"  ETV
vector 426  University.whttpStudents[0].wlan[0].inputHook[0]  packet/sec  ETV
vector 445  University.whttpStudents[2].wlan[0].inputHook[0]  "thruput (bit/sec)"  ETV
vector 446  University.whttpStudents[2].wlan[0].inputHook[0]  packet/sec  ETV
vector 391  University.mainR.ppp[0].outputHook[0]  "thruput (bit/sec)"  ETV
vector 392  University.mainR.ppp[0].outputHook[0]  packet/sec  ETV
vector 389  University.remoteR.ppp[0].inputHook[0]  "thruput (bit/sec)"  ETV
vector 390  University.remoteR.ppp[0].inputHook[0]  packet/sec  ETV
vector 148  University.whttpStudents[2].tcpApp[0]  sentPk:vector(packetBytes)  ETV
attr interpolationmode  none
attr source  sentPk
attr title  "packets sent, vector(packetBytes)"
vector 159  University.whttpStudents[3].tcpApp[0]  rcvdPk:vector(packetBytes)  ETV
attr interpolationmode  none
attr source  rcvdPk
attr title  "packets received, vector(packetBytes)"
vector 161  University.whttpStudents[3].tcpApp[0]  endToEndDelay:vector  ETV
attr interpolationmode  none
attr source  messageAge(rcvdPk)
attr title  "end-to-end delay, vector"
attr unit  s
vector 234  University.whttpStudents[9].tcpApp[0]  numActiveSessions:vector  ETV
attr interpolationmode  sample-hold
attr source  sum(connect)
attr title  "number of active sessions, vector"
vector 186  University.whttpStudents[5].tcpApp[0]  numActiveSessions:vector  ETV
attr interpolationmode  sample-hold
attr source  sum(connect)
attr title  "number of active sessions, vector"
vector 246  University.whttpStudents[10].tcpApp[0]  numActiveSessions:vector  ETV
attr interpolationmode  sample-hold
attr source  sum(connect)
attr title  "number of active sessions, vector"
vector 553  University.whttpStudents[13].wlan[0].outputHook[0]  "thruput (bit/sec)"  ETV
vector 554  University.whttpStudents[13].wlan[0].outputHook[0]  packet/sec  ETV
vector 443  University.whttpStudents[2].wlan[0].outputHook[0]  "thruput (bit/sec)"  ETV
vector 444  University.whttpStudents[2].wlan[0].outputHook[0]  packet/sec  ETV
vector 294  University.whttpStudents[14].tcpApp[0]  numActiveSessions:vector  ETV
attr interpolationmode  sample-hold
attr source  sum(connect)
attr title  "number of active sessions, vector"
vector 513  University.whttpStudents[9].wlan[0].outputHook[0]  "thruput (bit/sec)"  ETV
vector 514  University.whttpStudents[9].wlan[0].outputHook[0]  packet/sec  ETV
vector 473  University.whttpStudents[5].wlan[0].outputHook[0]  "thruput (bit/sec)"  ETV
vector 474  University.whttpStudents[5].wlan[0].outputHook[0]  packet/sec  ETV
vector 198  University.whttpStudents[6].tcpApp[0]  numActiveSessions:vector  ETV
attr interpolationmode  sample-hold
attr source  sum(connect)
attr title  "number of active sessions, vector"
vector 523  University.whttpStudents[10].wlan[0].outputHook[0]  "thruput (bit/sec)"  ETV
vector 524  University.whttpStudents[10].wlan[0].outputHook[0]  packet/sec  ETV
vector 222  University.whttpStudents[8].tcpApp[0]  numActiveSessions:vector  ETV
attr interpolationmode  sample-hold
attr source  sum(connect)
attr title  "number of active sessions, vector"
vector 593  University.whttpStudents[17].wlan[0].outputHook[0]  "thruput (bit/sec)"  ETV
vector 594  University.whttpStudents[17].wlan[0].outputHook[0]  packet/sec  ETV
vector 533  University.whttpStudents[11].wlan[0].outputHook[0]  "thruput (bit/sec)"  ETV
vector 534  University.whttpStudents[11].wlan[0].outputHook[0]  packet/sec  ETV
vector 563  University.whttpStudents[14].wlan[0].outputHook[0]  "thruput (bit/sec)"  ETV
vector 564  University.whttpStudents[14].wlan[0].outputHook[0]  packet/sec  ETV
vector 483  University.whttpStudents[6].wlan[0].outputHook[0]  "thruput (bit/sec)"  ETV
vector 484  University.whttpStudents[6].wlan[0].outputHook[0]  packet/sec  ETV
vector 503  University.whttpStudents[8].wlan[0].outputHook[0]  "thruput (bit/sec)"  ETV
vector 504  University.whttpStudents[8].wlan[0].outputHook[0]  packet/sec  ETV
vector 126  University.whttpStudents[0].tcpApp[0]  numActiveSessions:vector  ETV
attr interpolationmode  sample-hold
attr source  sum(connect)
attr title  "number of active sessions, vector"
vector 124  University.whttpStudents[0].tcpApp[0]  sentPk:vector(packetBytes)  ETV
attr interpolationmode  none
attr source  sentPk
attr title  "packets sent, vector(packetBytes)"
vector 423  University.whttpStudents[0].wlan[0].outputHook[0]  "thruput (bit/sec)"  ETV
vector 424  University.whttpStudents[0].wlan[0].outputHook[0]  packet/sec  ETV
vector 270  University.whttpStudents[12].tcpApp[0]  numActiveSessions:vector  ETV
attr interpolationmode  sample-hold
attr source  sum(connect)
attr title  "number of active sessions, vector"
vector 613  University.whostFTP.wlan[0].outputHook[0]  "thruput (bit/sec)"  ETV
vector 614  University.whostFTP.wlan[0].outputHook[0]  packet/sec  ETV
vector 543  University.whttpStudents[12].wlan[0].outputHook[0]  "thruput (bit/sec)"  ETV
vector 544  University.whttpStudents[12].wlan[0].outputHook[0]  packet/sec  ETV
vector 138  University.whttpStudents[1].tcpApp[0]  numActiveSessions:vector  ETV
attr interpolationmode  sample-hold
attr source  sum(connect)
attr title  "number of active sessions, vector"
vector 136  University.whttpStudents[1].tcpApp[0]  sentPk:vector(packetBytes)  ETV
attr interpolationmode  none
attr source  sentPk
attr title  "packets sent, vector(packetBytes)"
vector 318  University.whttpStudents[16].tcpApp[0]  numActiveSessions:vector  ETV
attr interpolationmode  sample-hold
attr source  sum(connect)
attr title  "number of active sessions, vector"
vector 433  University.whttpStudents[1].wlan[0].outputHook[0]  "thruput (bit/sec)"  ETV
vector 434  University.whttpStudents[1].wlan[0].outputHook[0]  packet/sec  ETV
vector 583  University.whttpStudents[16].wlan[0].outputHook[0]  "thruput (bit/sec)"  ETV
vector 584  University.whttpStudents[16].wlan[0].outputHook[0]  packet/sec  ETV
vector 210  University.whttpStudents[7].tcpApp[0]  numActiveSessions:vector  ETV
attr interpolationmode  sample-hold
attr source  sum(connect)
attr title  "number of active sessions, vector"
vector 135  University.whttpStudents[1].tcpApp[0]  rcvdPk:vector(packetBytes)  ETV
attr interpolationmode  none
attr source  rcvdPk
attr title  "packets received, vector(packetBytes)"
vector 137  University.whttpStudents[1].tcpApp[0]  endToEndDelay:vector  ETV
attr interpolationmode  none
attr source  messageAge(rcvdPk)
attr title  "end-to-end delay, vector"
attr unit  s
vector 306  University.whttpStudents[15].tcpApp[0]  numActiveSessions:vector  ETV
attr interpolationmode  sample-hold
attr source  sum(connect)
attr title  "number of active sessions, vector"
vector 493  University.whttpStudents[7].wlan[0].outputHook[0]  "thruput (bit/sec)"  ETV
vector 494  University.whttpStudents[7].wlan[0].outputHook[0]  packet/sec  ETV
vector 573  University.whttpStudents[15].wlan[0].outputHook[0]  "thruput (bit/sec)"  ETV
vector 574  University.whttpStudents[15].wlan[0].outputHook[0]  packet/sec  ETV
vector 147  University.whttpStudents[2].tcpApp[0]  rcvdPk:vector(packetBytes)  ETV
attr interpolationmode  none
attr source  rcvdPk
attr title  "packets received, vector(packetBytes)"
vector 149  University.whttpStudents[2].tcpApp[0]  endToEndDelay:vector  ETV
attr interpolationmode  none
attr source  messageAge(rcvdPk)
attr title  "end-to-end delay, vector"
attr unit  s
vector 174  University.whttpStudents[4].tcpApp[0]  numActiveSessions:vector  ETV
attr interpolationmode  sample-hold
attr source  sum(connect)
attr title  "number of active sessions, vector"
vector 172  University.whttpStudents[4].tcpApp[0]  sentPk:vector(packetBytes)  ETV
attr interpolationmode  none
attr source  sentPk
attr title  "packets sent, vector(packetBytes)"
vector 463  University.whttpStudents[4].wlan[0].outputHook[0]  "thruput (bit/sec)"  ETV
vector 464  University.whttpStudents[4].wlan[0].outputHook[0]  packet/sec  ETV
vector 171  University.whttpStudents[4].tcpApp[0]  rcvdPk:vector(packetBytes)  ETV
attr interpolationmode  none
attr source  rcvdPk
attr title  "packets received, vector(packetBytes)"
vector 173  University.whttpStudents[4].tcpApp[0]  endToEndDelay:vector  ETV
attr interpolationmode  none
attr source  messageAge(rcvdPk)
attr title  "end-to-end delay, vector"
attr unit  s
vector 123  University.whttpStudents[0].tcpApp[0]  rcvdPk:vector(packetBytes)  ETV
attr interpolationmode  none
attr source  rcvdPk
attr title  "packets received, vector(packetBytes)"
vector 125  University.whttpStudents[0].tcpApp[0]  endToEndDelay:vector  ETV
attr interpolationmode  none
attr source  messageAge(rcvdPk)
attr title  "end-to-end delay, vector"
attr unit  s
vector 358  University.whostFTP.tcpApp[0]  numActiveSessions:vector  ETV
attr interpolationmode  sample-hold
attr source  sum(connect)
attr title  "number of active sessions, vector"
vector 258  University.whttpStudents[11].tcpApp[0]  numActiveSessions:vector  ETV
attr interpolationmode  sample-hold
attr source  sum(connect)
attr title  "number of active sessions, vector"
vector 330  University.whttpStudents[17].tcpApp[0]  numActiveSessions:vector  ETV
attr interpolationmode  sample-hold
attr source  sum(connect)
attr title  "number of active sessions, vector"
75	17326 4128934 122169 249248631 5.003166757055 4683.683166757055 116968 1400 1400 163755200 229257280000
76	4146260 4130557 122357 249248829 5.028812979571 4683.708812979571 116968 1400 1400 163755200 229257280000
77	8276817 5296986 122169 249248631 5.003166757055 4683.683166757055 116968 0.016345635408 0.168044043678 1935.4121443932 32.237158658359
94	13573803 28677 134816 248807173 6.60085199644 4680.274149255474 890 1 1 890 890
95	13602480 33298 134816 248807173 6.60085199644 4680.274149255474 890 361 6917281 774593658 1.3743665537442e+15
96	13635778 40241 134816 248807173 6.60085199644 4680.274149255474 890 0.026997864553 0.033536552143 24.109747722443 0.65323021860741
123	13676019 6712 2923655 246067005 50.964064394617 4618.575267086201 174 3609 4093216 154134046 2.5416774568972e+14
124	13682731 5828 1046243 248010193 15.275409651062 4664.071443068558 175 1 1 175 175
125	13688559 8106 2923655 246067005 50.964064394617 4618.575267086201 174 0.42995822071 56.271893145423 2092.2490796027 60282.695041753
126	13696665 11620 944359 248007458 15.001168958051 4663.858839146402 349 0 1 175 175
135	13708285 6700 2141096 248005114 32.080353833297 4663.653799301376 174 4837 6917281 154485531 2.9433429344424e+14
136	13714985 5814 1796459 248806479 25.832972180881 4680.247097323256 175 1 1 175 175
137	13720799 8090 2141096 248005114 32.080353833297 4663.653799301376 174 0.642396188331 48.816959198124 2069.1509818267 60524.835670759
138	13728889 11618 1793519 248797537 25.620368275309 4680.033315506068 349 0 1 175 175
147	13740507 7192 2609673 248549984 40.41370300415 4668.131292055218 188 2448 5188037 159396947 2.877222150001e+14
148	13747699 6212 155725 246229618 7.791334123659 4632.222077949567 188 1 1 188 188
149	13753911 8698 2609673 248549984 40.41370300415 4668.131292055218 188 0.428645875627 57.934256636168 1910.5819381091 53988.627374674
150	13762609 12436 147117 248549984 7.577145160115 4668.131292055218 376 0 1 188 188
159	13775045 6487 178046 248892692 8.093973987272 4680.890891293894 169 937 4018669 148462469 2.5021344204702e+14
160	13781532 5610 133991 248782722 6.573818104968 4679.06628896869 169 1 1 169 169
161	13787142 7846 178046 248892692 8.093973987272 4680.890891293894 169 0.214589498824 79.888890204103 2073.2809470188 64354.209829095
162	13794988 11216 131917 248892692 6.359647182108 4680.890891293894 338 0 1 169 169
171	13806204 7031 2697711 247225136 43.074641533361 4646.516730797954 183 361 5368617 154700522 2.8189868466241e+14
172	13813235 6082 2621639 246894025 41.339647122052 4640.484451759104 183 1 1 183 183
173	13819317 8497 2697711 247225136 43.074641533361 4646.516730797954 183 0.213789553474 60.89670353479 2058.8789525197 58877.328867881
174	13827814 12171 2618819 247225136 41.125440235084 4646.516730797954 366 0 1 183 183
186	13839985 1766 179841 243822856 8.150090679387 4587.583374053754 52 1 52 1378 48230
198	13841751 1801 663353 247953438 11.152345360172 4662.167445140497 53 1 53 1431 51039
210	13843552 1842 2127284 248779006 31.570459444152 4678.691239879546 54 1 54 1485 53955
222	13845394 1772 717404 245964591 11.466873786765 4618.195138156218 52 1 52 1378 48230
234	13847166 1794 178599 248627650 8.101365746829 4675.803595124782 53 1 53 1431 51039
246	13848960 1834 185305 245128254 8.450178470126 4609.402906663179 54 1 54 1485 53955
258	13850794 1738 4449997 247211160 78.797455802535 4645.298893262605 51 1 51 1326 45526
270	13852532 1832 1599076 248791962 18.880158167628 4679.757968642676 54 1 54 1485 53955
282	13854364 1803 126197 247191061 5.640579336218 4643.650287937649 53 1 53 1431 51039
294	13856167 1766 628909 246221175 10.951915577027 4631.578067538697 52 1 52 1378 48230
306	13857933 1766 2191097 247949844 33.75083803821 4661.875466454404 52 1 52 1378 48230
318	13859699 1732 1808591 247854125 26.544396159328 4657.264211254898 51 1 51 1326 45526
330	13861431 1773 4616005 247839694 83.54312820124 4657.046381080263 52 1 52 1378 48230
340	13863204 4247525 122170 249248642 5.026821121647 4683.706821121647 116968 1400 1400 163755200 229257280000
358	18110729 1314 4361432 247300329 75 4650 62 1 62 1953 81375
379	18112043 196890 135930 249240922 5.640651183417 4681.77533957284 4184 88.827686911783 11418298.187551 6083104897.4609 2.8165897756306e+16
380	18308933 196947 135930 249240922 5.640651183417 4681.77533957284 4184 0.27758652159932 951.52484896259 510912.56684704 196665160.66424
381	18505880 188600 129597 249248760 5.027210090389 4682.668871263502 4661 276305.17121617 573079.70879449 1504925673.4205 5.0084071911788e+14
382	18694480 175220 129597 249248760 5.027210090389 4682.668871263502 4661 25 923.57406884194 658538.47046416 237237632.6573
387	18869700 188600 129599 249248762 5.027210090389 4682.668871263502 4661 276305.17121617 573079.70879449 1504881745.0176 5.0081244077347e+14
388	19058300 175220 129599 249248762 5.027210090389 4682.668871263502 4661 25 923.57406884194 658342.36152307 237183505.77081
389	19233520 196855 148368 249240920 6.573742112742 4681.77533957284 4183 88.827686911783 11418298.187551 6083466585.0604 2.8221285818154e+16
390	19430375 196904 148368 249240920 6.573742112742 4681.77533957284 4183 0.27758652159932 951.52484896259 510759.00560846 197003641.34163
391	19627279 196672 148252 249245472 6.563705446076 4682.407866792482 4178 94.122750505559 13298963.693759 6467482449.6468 3.480064528202e+16
392	19823951 196810 148252 249245472 6.563705446076 4682.407866792482 4178 0.23299392267331 1108.2469744799 542796.38985825 242802725.5852
393	20020761 188565 129682 249248845 5.038166757055 4682.679827930168 4661 277295.86539388 573074.55350102 1504867434.76 5.0078849091912e+14
394	20209326 175128 129682 249248845 5.038166757055 4682.679827930168 4661 25 923.56576058167 658301.15515144 237120195.94173
395	20384454 179232 129677 249241869 5.033812979571 4682.033812979571 4678 273952 319648 1388430400 4.1208718678221e+14
396	20563686 160520 129677 249241869 5.033812979571 4682.033812979571 4678 48 52 233900 11695008
397	20724206 179232 129674 249241866 5.033812979571 4682.033812979571 4678 285600 285600 1336036800 3.8157211008e+14
398	20903438 160520 129674 249241866 5.033812979571 4682.033812979571 4678 25 25 116950 2923750
399	21063958 202557 136670 249248334 5.652294924481 4682.57514770962 4302 115.70291496521 274537.80996483 169455021.33152 20654012909521
400	21266515 202577 136670 249248334 5.652294924481 4682.57514770962 4302 0.36157160926629 857.93065614009 526183.65088683 200875180.8233
401	21469092 200827 137940 249245470 5.844673645105 4682.407866792482 4265 128 13298963.693759 6485690651.8632 3.5158083973884e+16
402	21669919 200867 137940 249245470 5.844673645105 4682.407866792482 4265 0.33333333333333 1108.2469744799 550330.4318779 246775118.26559
411	21870786 179232 129669 249241861 5.028812979571 4682.028812979571 4678 285600 285600 1336036800 3.8157211008e+14
412	22050018 160520 129669 249241861 5.028812979571 4682.028812979571 4678 25 25 116950 2923750
413	22210538 179232 129689 249241881 5.038812979571 4682.038812979571 4678 273952 319648 1388430400 4.1208718678221e+14
414	22389770 160520 129689 249241881 5.038812979571 4682.038812979571 4678 48 52 233900 11695008
415	22550290 200952 136685 249244186 5.668487499276 4682.231564486653 4265 128 16218176.398859 6769507319.6378 3.8712250938714e+16
416	22751242 200999 136685 249244186 5.668487499276 4682.231564486653 4265 0.33333333333333 1360.7919481707 573996.63111572 271639165.63282
417	22952241 202628 136680 249248620 5.668487499276 4682.591339644415 4302 115.70288819089 274537.80996483 169455019.9522 20654012679323
418	23154869 202629 136680 249248620 5.668487499276 4682.591339644415 4302 0.36157152559653 857.93065614009 526183.64638247 200875178.53162
423	23357498 98498 1180472 249243493 15.001168958051 4682.105348830687 2091 4.2964948547038 235782.64944593 30311530.895437 3044018927835.6
424	23455996 98583 1180472 249243493 15.001168958051 4682.105348830687 2091 0.013426546420949 736.82077951853 94696.424156285 29726380.011303
425	23554579 100548 147452 249247660 5.641739417517 4682.446487352983 2135 4.8979527474475 8854814.4352376 1147556011.3636 4.2393816026673e+15
426	23655127 100696 147452 249247660 5.641739417517 4682.446487352983 2135 0.021865860479677 738.38746622049 96223.402371333 29494086.98831
433	23755823 98165 1811109 249243852 25.620368275309 4682.178282909807 2081 4.1264089792418 228364.22281816 30428491.582492 3482002243228.7
434	23853988 98315 1811109 249243852 25.620368275309 4682.178282909807 2081 0.012895028060131 713.63819630675 95062.63022289 34003889.384391
435	23952303 99381 147422 249245954 5.641739409225 4682.321537715475 2107 4.5983216062802 8571489.0809438 1127319557.6952 4.728316369334e+15
436	24051684 99561 147422 249245954 5.641739409225 4682.321537715475 2107 0.020528221456608 714.29075674532 94526.41777628 32895274.961504
443	24151245 89640 187659 248545556 7.577145160115 4666.625776663603 1907 6.1826849811476 226340.19822688 31283147.696444 3118166067247.9
444	24240885 89727 187659 248545556 7.577145160115 4666.625776663603 1907 0.019320890566086 707.52176523073 97730.855118061 30451081.324002
445	24330612 91464 147514 248806156 5.641739405814 4667.702635564386 1944 4.9455206113014 8364433.672866 1163309969.0446 4.2469529272076e+15
446	24422076 91656 147514 248806156 5.641739405814 4667.702635564386 1944 0.022078217014739 697.52247312601 97554.041476209 29557439.612384
453	24513732 95032 143193 248897033 6.359647182108 4679.923999420104 2008 5.0794800128675 236268.47686815 28855358.317682 3008895331835.2
454	24608764 95080 143193 248897033 6.359647182108 4679.923999420104 2008 0.015873375040211 738.33899021297 90148.398584294 29383533.648387
455	24703844 96792 136138 248798822 5.641739395643 4679.06628896869 2048 4.7844320321183 8477564.0355309 1089623543.1755 4.1702906308075e+15
456	24800636 97038 136138 248798822 5.641739395643 4679.06628896869 2048 0.021359071571957 706.95030208445 91378.931669496 29022107.351688
463	24897674 96379 2633984 247228204 41.125440235084 4645.659417969442 2045 4.4033616678376 286790.17774897 30438918.738271 3082509444026.1
464	24994053 96563 2633984 247228204 41.125440235084 4645.659417969442 2045 0.013760505211992 896.21930546554 95094.219903888 30102256.944716
465	25090616 98342 147348 248806102 5.64173938667 4645.87374617657 2086 5.0677896610223 9930752.1333832 1150258053.2009 4.3100780368828e+15
466	25188958 98532 147348 248806102 5.64173938667 4645.87374617657 2086 0.022624060986707 827.56267778194 96469.627628317 29991272.135743
473	25287490 9574 662369 246235436 8.150090679387 4608.583374053754 259 3.1891651588793 202.66666666667 13034.78837338 1161007.6034244
474	25297064 12627 662369 246235436 8.150090679387 4608.583374053754 259 0.0083051176012482 0.66666666666667 34.083650277899 8.0394817820001
475	25309691 8641 147372 248806126 5.641739396665 4634.986661048621 184 2.3271993852481 265.47170666222 5600.842081868 504581.62773719
476	25318332 8934 147372 248806126 5.641739396665 4634.986661048621 184 0.010389282969858 1.1851415475992 25.003759294053 10.05623460892
483	25327266 9727 838222 249242679 11.152345360172 4671.167445140497 263 4.2283384149231 202.66666666667 13260.596544319 1182434.4136757
484	25336993 12827 838222 249242679 11.152345360172 4671.167445140497 263 0.011011297955529 0.66666666666667 34.671692389719 8.1847916388479
485	25349820 8646 147354 248806108 5.641739390962 4634.986661042918 184 2.3271993852481 265.47170666222 5604.2909381336 504617.26080207
486	25358466 8940 147354 248806108 5.641739390962 4634.986661042918 184 0.010389282969858 1.1851415475992 25.019155973811 10.056944770449
493	25367406 9872 2220708 248924812 31.570459444152 4678.691239879546 266 4.4473337954543 202.66666666667 13430.91780228 1199478.5984666
494	25377278 12997 2220708 248924812 31.570459444152 4678.691239879546 266 0.011581598425662 0.66666666666667 35.115237332326 8.3003799146108
495	25390275 8640 147360 248806114 5.641739393491 4634.986661045447 184 2.3271993852481 265.47170666222 5605.5592474852 504648.8135081
496	25398915 8937 147360 248806114 5.641739393491 4634.986661045447 184 0.010389282969858 1.1851415475992 25.02481806913 10.057573611051
503	25407852 9599 860315 247971229 11.466873786765 4639.195138156218 259 2.9535756645754 202.66666666667 13027.69840994 1160874.501484
504	25417451 12653 860315 247971229 11.466873786765 4639.195138156218 259 0.0076916032931652 0.66666666666667 34.065186831441 8.038579126697
505	25430104 8643 147428 248806190 5.641739409742 4634.986661061698 184 2.3271993852481 265.47170666222 5605.5557034817 504647.99075415