file 30441805 1471645098                                        
version 2
run _18to20off-9-20160819-23:59:27-19087
attr configname _18to20off
attr datetime 20160819-23:59:27
attr experiment _18to20off
attr inifile omnetpp.ini
attr iterationvars $0=18
attr iterationvars2 "$0=18, $repetition=9"
attr measurement $0=18
attr network University
attr processid 19087
attr repetition 9
attr replication #9
attr resultdir /utmnt/ut/si/sinp1070
attr runnumber 9
attr seedset 9

vector 340  University.whostVideoConf.udpApp[0]  sentPk:vector(packetBytes)  ETV
attr interpolationmode  none
attr source  sentPk
attr title  "packets sent, vector(packetBytes)"
vector 76  University.profLaptop.udpApp[0]  sentPk:vector(packetBytes)  ETV
attr interpolationmode  none
attr source  sentPk
attr title  "packets sent, vector(packetBytes)"
vector 75  University.profLaptop.udpApp[0]  rcvdPk:vector(packetBytes)  ETV
attr interpolationmode  none
attr source  rcvdPk
attr title  "packets received, vector(packetBytes)"
vector 77  University.profLaptop.udpApp[0]  rcvdPkLifetime:vector  ETV
attr interpolationmode  none
attr source  messageAge(rcvdPk)
attr title  "received packet lifetime, vector"
attr unit  s
vector 603  University.whostVideoConf.wlan[0].outputHook[0]  "thruput (bit/sec)"  ETV
vector 604  University.whostVideoConf.wlan[0].outputHook[0]  packet/sec  ETV
vector 625  University.accessPoint.wlan[0].inputHook[0]  "thruput (bit/sec)"  ETV
vector 626  University.accessPoint.wlan[0].inputHook[0]  packet/sec  ETV
vector 633  University.accessPoint.eth[0].outputHook[0]  "thruput (bit/sec)"  ETV
vector 634  University.accessPoint.eth[0].outputHook[0]  packet/sec  ETV
vector 381  University.remoteR.eth[0].inputHook[0]  "thruput (bit/sec)"  ETV
vector 382  University.remoteR.eth[0].inputHook[0]  packet/sec  ETV
vector 387  University.remoteR.ppp[0].outputHook[0]  "thruput (bit/sec)"  ETV
vector 388  University.remoteR.ppp[0].outputHook[0]  packet/sec  ETV
vector 411  University.profLaptop.ppp[0].outputHook[0]  "thruput (bit/sec)"  ETV
vector 412  University.profLaptop.ppp[0].outputHook[0]  packet/sec  ETV
vector 397  University.mainR.ppp[1].inputHook[0]  "thruput (bit/sec)"  ETV
vector 398  University.mainR.ppp[1].inputHook[0]  packet/sec  ETV
vector 395  University.mainR.ppp[1].outputHook[0]  "thruput (bit/sec)"  ETV
vector 396  University.mainR.ppp[1].outputHook[0]  packet/sec  ETV
vector 413  University.profLaptop.ppp[0].inputHook[0]  "thruput (bit/sec)"  ETV
vector 414  University.profLaptop.ppp[0].inputHook[0]  packet/sec  ETV
vector 393  University.mainR.ppp[0].inputHook[0]  "thruput (bit/sec)"  ETV
vector 394  University.mainR.ppp[0].inputHook[0]  packet/sec  ETV
vector 379  University.remoteR.eth[0].outputHook[0]  "thruput (bit/sec)"  ETV
vector 380  University.remoteR.eth[0].outputHook[0]  packet/sec  ETV
vector 635  University.accessPoint.eth[0].inputHook[0]  "thruput (bit/sec)"  ETV
vector 636  University.accessPoint.eth[0].inputHook[0]  packet/sec  ETV
vector 623  University.accessPoint.wlan[0].outputHook[0]  "thruput (bit/sec)"  ETV
vector 624  University.accessPoint.wlan[0].outputHook[0]  packet/sec  ETV
vector 435  University.whttpStudents[1].wlan[0].inputHook[0]  "thruput (bit/sec)"  ETV
vector 436  University.whttpStudents[1].wlan[0].inputHook[0]  packet/sec  ETV
vector 433  University.whttpStudents[1].wlan[0].outputHook[0]  "thruput (bit/sec)"  ETV
vector 434  University.whttpStudents[1].wlan[0].outputHook[0]  packet/sec  ETV
vector 399  University.mainR.ppp[2].outputHook[0]  "thruput (bit/sec)"  ETV
vector 400  University.mainR.ppp[2].outputHook[0]  packet/sec  ETV
vector 417  University.Server.ppp[0].inputHook[0]  "thruput (bit/sec)"  ETV
vector 418  University.Server.ppp[0].inputHook[0]  packet/sec  ETV
vector 415  University.Server.ppp[0].outputHook[0]  "thruput (bit/sec)"  ETV
vector 416  University.Server.ppp[0].outputHook[0]  packet/sec  ETV
vector 401  University.mainR.ppp[2].inputHook[0]  "thruput (bit/sec)"  ETV
vector 402  University.mainR.ppp[2].inputHook[0]  packet/sec  ETV
vector 391  University.mainR.ppp[0].outputHook[0]  "thruput (bit/sec)"  ETV
vector 392  University.mainR.ppp[0].outputHook[0]  packet/sec  ETV
vector 389  University.remoteR.ppp[0].inputHook[0]  "thruput (bit/sec)"  ETV
vector 390  University.remoteR.ppp[0].inputHook[0]  packet/sec  ETV
vector 198  University.whttpStudents[6].tcpApp[0]  numActiveSessions:vector  ETV
attr interpolationmode  sample-hold
attr source  sum(connect)
attr title  "number of active sessions, vector"
vector 174  University.whttpStudents[4].tcpApp[0]  numActiveSessions:vector  ETV
attr interpolationmode  sample-hold
attr source  sum(connect)
attr title  "number of active sessions, vector"
vector 172  University.whttpStudents[4].tcpApp[0]  sentPk:vector(packetBytes)  ETV
attr interpolationmode  none
attr source  sentPk
attr title  "packets sent, vector(packetBytes)"
vector 94  University.Server.tcpApp[0]  rcvdPk:vector(packetBytes)  ETV
attr interpolationmode  none
attr source  rcvdPk
attr title  "packets received, vector(packetBytes)"
vector 96  University.Server.tcpApp[0]  endToEndDelay:vector  ETV
attr interpolationmode  none
attr source  messageAge(rcvdPk)
attr title  "end-to-end delay, vector"
attr unit  s
vector 95  University.Server.tcpApp[0]  sentPk:vector(packetBytes)  ETV
attr interpolationmode  none
attr source  sentPk
attr title  "packets sent, vector(packetBytes)"
vector 135  University.whttpStudents[1].tcpApp[0]  rcvdPk:vector(packetBytes)  ETV
attr interpolationmode  none
attr source  rcvdPk
attr title  "packets received, vector(packetBytes)"
vector 137  University.whttpStudents[1].tcpApp[0]  endToEndDelay:vector  ETV
attr interpolationmode  none
attr source  messageAge(rcvdPk)
attr title  "end-to-end delay, vector"
attr unit  s
vector 138  University.whttpStudents[1].tcpApp[0]  numActiveSessions:vector  ETV
attr interpolationmode  sample-hold
attr source  sum(connect)
attr title  "number of active sessions, vector"
vector 465  University.whttpStudents[4].wlan[0].inputHook[0]  "thruput (bit/sec)"  ETV
vector 466  University.whttpStudents[4].wlan[0].inputHook[0]  packet/sec  ETV
vector 171  University.whttpStudents[4].tcpApp[0]  rcvdPk:vector(packetBytes)  ETV
attr interpolationmode  none
attr source  rcvdPk
attr title  "packets received, vector(packetBytes)"
vector 173  University.whttpStudents[4].tcpApp[0]  endToEndDelay:vector  ETV
attr interpolationmode  none
attr source  messageAge(rcvdPk)
attr title  "end-to-end delay, vector"
attr unit  s
vector 483  University.whttpStudents[6].wlan[0].outputHook[0]  "thruput (bit/sec)"  ETV
vector 484  University.whttpStudents[6].wlan[0].outputHook[0]  packet/sec  ETV
vector 463  University.whttpStudents[4].wlan[0].outputHook[0]  "thruput (bit/sec)"  ETV
vector 464  University.whttpStudents[4].wlan[0].outputHook[0]  packet/sec  ETV
vector 330  University.whttpStudents[17].tcpApp[0]  numActiveSessions:vector  ETV
attr interpolationmode  sample-hold
attr source  sum(connect)
attr title  "number of active sessions, vector"
vector 425  University.whttpStudents[0].wlan[0].inputHook[0]  "thruput (bit/sec)"  ETV
vector 426  University.whttpStudents[0].wlan[0].inputHook[0]  packet/sec  ETV
vector 535  University.whttpStudents[11].wlan[0].inputHook[0]  "thruput (bit/sec)"  ETV
vector 536  University.whttpStudents[11].wlan[0].inputHook[0]  packet/sec  ETV
vector 565  University.whttpStudents[14].wlan[0].inputHook[0]  "thruput (bit/sec)"  ETV
vector 566  University.whttpStudents[14].wlan[0].inputHook[0]  packet/sec  ETV
vector 475  University.whttpStudents[5].wlan[0].inputHook[0]  "thruput (bit/sec)"  ETV
vector 476  University.whttpStudents[5].wlan[0].inputHook[0]  packet/sec  ETV
vector 555  University.whttpStudents[13].wlan[0].inputHook[0]  "thruput (bit/sec)"  ETV
vector 556  University.whttpStudents[13].wlan[0].inputHook[0]  packet/sec  ETV
vector 615  University.whostFTP.wlan[0].inputHook[0]  "thruput (bit/sec)"  ETV
vector 616  University.whostFTP.wlan[0].inputHook[0]  packet/sec  ETV
vector 455  University.whttpStudents[3].wlan[0].inputHook[0]  "thruput (bit/sec)"  ETV
vector 456  University.whttpStudents[3].wlan[0].inputHook[0]  packet/sec  ETV
vector 515  University.whttpStudents[9].wlan[0].inputHook[0]  "thruput (bit/sec)"  ETV
vector 516  University.whttpStudents[9].wlan[0].inputHook[0]  packet/sec  ETV
vector 525  University.whttpStudents[10].wlan[0].inputHook[0]  "thruput (bit/sec)"  ETV
vector 526  University.whttpStudents[10].wlan[0].inputHook[0]  packet/sec  ETV
vector 485  University.whttpStudents[6].wlan[0].inputHook[0]  "thruput (bit/sec)"  ETV
vector 486  University.whttpStudents[6].wlan[0].inputHook[0]  packet/sec  ETV
vector 545  University.whttpStudents[12].wlan[0].inputHook[0]  "thruput (bit/sec)"  ETV
vector 546  University.whttpStudents[12].wlan[0].inputHook[0]  packet/sec  ETV
vector 575  University.whttpStudents[15].wlan[0].inputHook[0]  "thruput (bit/sec)"  ETV
vector 576  University.whttpStudents[15].wlan[0].inputHook[0]  packet/sec  ETV
vector 495  University.whttpStudents[7].wlan[0].inputHook[0]  "thruput (bit/sec)"  ETV
vector 496  University.whttpStudents[7].wlan[0].inputHook[0]  packet/sec  ETV
vector 505  University.whttpStudents[8].wlan[0].inputHook[0]  "thruput (bit/sec)"  ETV
vector 506  University.whttpStudents[8].wlan[0].inputHook[0]  packet/sec  ETV
vector 445  University.whttpStudents[2].wlan[0].inputHook[0]  "thruput (bit/sec)"  ETV
vector 446  University.whttpStudents[2].wlan[0].inputHook[0]  packet/sec  ETV
vector 585  University.whttpStudents[16].wlan[0].inputHook[0]  "thruput (bit/sec)"  ETV
vector 586  University.whttpStudents[16].wlan[0].inputHook[0]  packet/sec  ETV
vector 605  University.whostVideoConf.wlan[0].inputHook[0]  "thruput (bit/sec)"  ETV
vector 606  University.whostVideoConf.wlan[0].inputHook[0]  packet/sec  ETV
vector 595  University.whttpStudents[17].wlan[0].inputHook[0]  "thruput (bit/sec)"  ETV
vector 596  University.whttpStudents[17].wlan[0].inputHook[0]  packet/sec  ETV
vector 473  University.whttpStudents[5].wlan[0].outputHook[0]  "thruput (bit/sec)"  ETV
vector 474  University.whttpStudents[5].wlan[0].outputHook[0]  packet/sec  ETV
vector 593  University.whttpStudents[17].wlan[0].outputHook[0]  "thruput (bit/sec)"  ETV
vector 594  University.whttpStudents[17].wlan[0].outputHook[0]  packet/sec  ETV
vector 270  University.whttpStudents[12].tcpApp[0]  numActiveSessions:vector  ETV
attr interpolationmode  sample-hold
attr source  sum(connect)
attr title  "number of active sessions, vector"
vector 543  University.whttpStudents[12].wlan[0].outputHook[0]  "thruput (bit/sec)"  ETV
vector 544  University.whttpStudents[12].wlan[0].outputHook[0]  packet/sec  ETV
vector 222  University.whttpStudents[8].tcpApp[0]  numActiveSessions:vector  ETV
attr interpolationmode  sample-hold
attr source  sum(connect)
attr title  "number of active sessions, vector"
vector 258  University.whttpStudents[11].tcpApp[0]  numActiveSessions:vector  ETV
attr interpolationmode  sample-hold
attr source  sum(connect)
attr title  "number of active sessions, vector"
vector 136  University.whttpStudents[1].tcpApp[0]  sentPk:vector(packetBytes)  ETV
attr interpolationmode  none
attr source  sentPk
attr title  "packets sent, vector(packetBytes)"
vector 613  University.whostFTP.wlan[0].outputHook[0]  "thruput (bit/sec)"  ETV
vector 614  University.whostFTP.wlan[0].outputHook[0]  packet/sec  ETV
vector 503  University.whttpStudents[8].wlan[0].outputHook[0]  "thruput (bit/sec)"  ETV
vector 504  University.whttpStudents[8].wlan[0].outputHook[0]  packet/sec  ETV
vector 533  University.whttpStudents[11].wlan[0].outputHook[0]  "thruput (bit/sec)"  ETV
vector 534  University.whttpStudents[11].wlan[0].outputHook[0]  packet/sec  ETV
vector 493  University.whttpStudents[7].wlan[0].outputHook[0]  "thruput (bit/sec)"  ETV
vector 494  University.whttpStudents[7].wlan[0].outputHook[0]  packet/sec  ETV
vector 294  University.whttpStudents[14].tcpApp[0]  numActiveSessions:vector  ETV
attr interpolationmode  sample-hold
attr source  sum(connect)
attr title  "number of active sessions, vector"
vector 583  University.whttpStudents[16].wlan[0].outputHook[0]  "thruput (bit/sec)"  ETV
vector 584  University.whttpStudents[16].wlan[0].outputHook[0]  packet/sec  ETV
vector 306  University.whttpStudents[15].tcpApp[0]  numActiveSessions:vector  ETV
attr interpolationmode  sample-hold
attr source  sum(connect)
attr title  "number of active sessions, vector"
vector 563  University.whttpStudents[14].wlan[0].outputHook[0]  "thruput (bit/sec)"  ETV
vector 564  University.whttpStudents[14].wlan[0].outputHook[0]  packet/sec  ETV
vector 282  University.whttpStudents[13].tcpApp[0]  numActiveSessions:vector  ETV
attr interpolationmode  sample-hold
attr source  sum(connect)
attr title  "number of active sessions, vector"
vector 126  University.whttpStudents[0].tcpApp[0]  numActiveSessions:vector  ETV
attr interpolationmode  sample-hold
attr source  sum(connect)
attr title  "number of active sessions, vector"
vector 573  University.whttpStudents[15].wlan[0].outputHook[0]  "thruput (bit/sec)"  ETV
vector 574  University.whttpStudents[15].wlan[0].outputHook[0]  packet/sec  ETV
vector 124  University.whttpStudents[0].tcpApp[0]  sentPk:vector(packetBytes)  ETV
attr interpolationmode  none
attr source  sentPk
attr title  "packets sent, vector(packetBytes)"
vector 123  University.whttpStudents[0].tcpApp[0]  rcvdPk:vector(packetBytes)  ETV
attr interpolationmode  none
attr source  rcvdPk
attr title  "packets received, vector(packetBytes)"
vector 125  University.whttpStudents[0].tcpApp[0]  endToEndDelay:vector  ETV
attr interpolationmode  none
attr source  messageAge(rcvdPk)
attr title  "end-to-end delay, vector"
attr unit  s
vector 553  University.whttpStudents[13].wlan[0].outputHook[0]  "thruput (bit/sec)"  ETV
vector 554  University.whttpStudents[13].wlan[0].outputHook[0]  packet/sec  ETV
vector 423  University.whttpStudents[0].wlan[0].outputHook[0]  "thruput (bit/sec)"  ETV
vector 424  University.whttpStudents[0].wlan[0].outputHook[0]  packet/sec  ETV
vector 150  University.whttpStudents[2].tcpApp[0]  numActiveSessions:vector  ETV
attr interpolationmode  sample-hold
attr source  sum(connect)
attr title  "number of active sessions, vector"
vector 148  University.whttpStudents[2].tcpApp[0]  sentPk:vector(packetBytes)  ETV
attr interpolationmode  none
attr source  sentPk
attr title  "packets sent, vector(packetBytes)"
vector 147  University.whttpStudents[2].tcpApp[0]  rcvdPk:vector(packetBytes)  ETV
attr interpolationmode  none
attr source  rcvdPk
attr title  "packets received, vector(packetBytes)"
vector 149  University.whttpStudents[2].tcpApp[0]  endToEndDelay:vector  ETV
attr interpolationmode  none
attr source  messageAge(rcvdPk)
attr title  "end-to-end delay, vector"
attr unit  s
vector 443  University.whttpStudents[2].wlan[0].outputHook[0]  "thruput (bit/sec)"  ETV
vector 444  University.whttpStudents[2].wlan[0].outputHook[0]  packet/sec  ETV
vector 234  University.whttpStudents[9].tcpApp[0]  numActiveSessions:vector  ETV
attr interpolationmode  sample-hold
attr source  sum(connect)
attr title  "number of active sessions, vector"
vector 162  University.whttpStudents[3].tcpApp[0]  numActiveSessions:vector  ETV
attr interpolationmode  sample-hold
attr source  sum(connect)
attr title  "number of active sessions, vector"
vector 160  University.whttpStudents[3].tcpApp[0]  sentPk:vector(packetBytes)  ETV
attr interpolationmode  none
attr source  sentPk
attr title  "packets sent, vector(packetBytes)"
vector 513  University.whttpStudents[9].wlan[0].outputHook[0]  "thruput (bit/sec)"  ETV
vector 514  University.whttpStudents[9].wlan[0].outputHook[0]  packet/sec  ETV
vector 453  University.whttpStudents[3].wlan[0].outputHook[0]  "thruput (bit/sec)"  ETV
vector 454  University.whttpStudents[3].wlan[0].outputHook[0]  packet/sec  ETV
vector 159  University.whttpStudents[3].tcpApp[0]  rcvdPk:vector(packetBytes)  ETV
attr interpolationmode  none
attr source  rcvdPk
attr title  "packets received, vector(packetBytes)"
vector 161  University.whttpStudents[3].tcpApp[0]  endToEndDelay:vector  ETV
attr interpolationmode  none
attr source  messageAge(rcvdPk)
attr title  "end-to-end delay, vector"
attr unit  s
vector 246  University.whttpStudents[10].tcpApp[0]  numActiveSessions:vector  ETV
attr interpolationmode  sample-hold
attr source  sum(connect)
attr title  "number of active sessions, vector"
vector 523  University.whttpStudents[10].wlan[0].outputHook[0]  "thruput (bit/sec)"  ETV
vector 524  University.whttpStudents[10].wlan[0].outputHook[0]  packet/sec  ETV
vector 358  University.whostFTP.tcpApp[0]  numActiveSessions:vector  ETV
attr interpolationmode  sample-hold
attr source  sum(connect)
attr title  "number of active sessions, vector"
vector 210  University.whttpStudents[7].tcpApp[0]  numActiveSessions:vector  ETV
attr interpolationmode  sample-hold
attr source  sum(connect)
attr title  "number of active sessions, vector"
vector 318  University.whttpStudents[16].tcpApp[0]  numActiveSessions:vector  ETV
attr interpolationmode  sample-hold
attr source  sum(connect)
attr title  "number of active sessions, vector"
vector 186  University.whttpStudents[5].tcpApp[0]  numActiveSessions:vector  ETV
attr interpolationmode  sample-hold
attr source  sum(connect)
attr title  "number of active sessions, vector"
75	17326 4347454 381810 338449886 5.035984824884 4912.155984824884 122678 1400 1400 171749200 240448880000
76	4364780 4349966 380971 338449688 5.020074983816 4912.140074983816 122679 1400 1400 171750600 240450840000
77	8714746 5571849 381810 338449886 5.035984824884 4912.155984824884 122678 0.016345638081 0.200372231474 2042.5102725181 34.452633256041
94	14286595 43199 456072 338274016 7.606734669315 4910.777959207847 1336 1 1 1336 1336
95	14329794 50085 456072 338274016 7.606734669315 4910.777959207847 1336 110 5603499 1090318794 1.8006392658832e+15
96	14379879 60320 456072 338274016 7.606734669315 4910.777959207847 1336 0.011122501204 0.019243670204 15.031021473126 0.16942094523271
123	14440199 10586 1479699 338209577 27.799568337654 4901.175436122151 275 110 5603499 228911736 3.9150371375278e+14
124	14450785 9162 1406590 337493460 27.426706644533 4895.111088613155 275 1 1 275 275
125	14459947 12715 1479699 338209577 27.799568337654 4901.175436122151 275 0.036287640305 12.771157818107 916.03351160131 5951.7497844116
126	14472662 18312 1405943 338209577 27.392561424412 4901.175436122151 550 0 1 275 275
135	14490974 11054 513153 337956163 7.836666313412 4897.821088972057 287 6076 3693120 223752749 3.2606537652008e+14
136	14502028 9578 871774 338273509 20.856281631028 4910.766827625508 287 1 1 287 287
137	14511606 13301 513153 337956163 7.836666313412 4897.821088972057 287 0.108885558639 12.029569578509 902.5281932455 5434.2559980127
138	14524907 19458 513153 338272921 7.836666313412 4910.732682351297 574 -1 0 -287 287
147	14544365 9556 1691352 336049247 31.646252406167 4873.314509236947 248 1798 4358294 206562446 3.4273005745737e+14
148	14553921 8270 1682991 335478774 31.496277217887 4867.647269574049 248 1 1 248 248
149	14562191 11480 1691352 336049247 31.646252406167 4873.314509236947 248 0.080712476637 13.331253483058 818.53314146094 5180.2917484828
150	14573671 16528 1681759 336049247 31.46056484832 4873.314509236947 496 0 1 248 248
159	14590199 10549 2616518 337823378 39.658426273501 4897.231154513749 274 3837 4781388 228021128 3.8753152989486e+14
160	14600748 9123 2219378 337740614 37.1772686794 4896.846666248383 274 1 1 274 274
161	14609871 12679 2616518 337823378 39.658426273501 4897.231154513749 274 0.073076837372 17.908477535734 923.59670870667 6288.5406278012
162	14622550 18268 2218601 337823378 37.142873489089 4897.231154513749 548 0 1 274 274
171	14640818 9678 611759 336811522 8.100920618146 4887.776634298198 252 2117 4586524 203640888 3.5391479511768e+14
172	14650496 8385 455560 336778315 7.595594058695 4887.513679699564 252 1 1 252 252
173	14658881 11627 611759 336811522 8.100920618146 4887.776634298198 252 0.071380046314 19.111484022096 801.72128034742 5362.872372073
174	14670508 16774 453748 336811522 7.559881692112 4887.776634298198 504 0 1 252 252
186	14687282 1845 9953430 334668566 113.419126726368 4848.850516174512 54 1 54 1485 53955
198	14689127 1876 437883 334524185 7.024903875616 4846.857460012238 55 1 55 1540 56980
210	14691003 1876 6619287 334982771 79.396598534243 4854.951602926624 55 1 55 1540 56980
222	14692879 1842 852459 335728191 18.137215012788 4870.114376452146 54 1 54 1485 53955
234	14694721 1780 1955139 333474769 34.242784629563 4829.007782402608 52 1 52 1378 48230
246	14696501 1913 2912010 332156219 45.180107420787 4805.643323555094 56 1 56 1596 60116
258	14698414 1912 853683 336264234 18.181456622995 4875.63249012037 56 1 56 1596 60116
270	14700326 1914 830717 337732652 14.895593478062 4896.569697759524 56 1 56 1596 60116
282	14702240 1881 1212484 331442066 26.133440351807 4790.506396746842 55 1 55 1540 56980
294	14704121 1912 1082826 335227394 21.723720498571 4859.323560561852 56 1 56 1596 60116
306	14706033 1813 1162652 333523357 24.42470702185 4835.483741135296 53 1 53 1431 51039
318	14707846 1847 8233186 335475274 89.872740638982 4867.168840931174 54 1 54 1485 53955
330	14709693 1916 633797 337214244 11.043473296878 4889.686927645242 56 1 56 1596 60116
340	14711609 4472645 380847 338449564 5.019639186803 4912.139639186803 122679 1400 1400 171750600 240450840000
358	19184254 1387 6054789 336098097 75 4875 65 1 65 2145 93665
379	19185641 152159 418761 338443041 5.347910043699 4910.766751628176 3223 27.301995711253 11538970.891596 8310316797.9266 4.5370553959185e+16
380	19337800 152336 418761 338443041 5.347910043699 4910.766751628176 3223 0.12188390942523 964.39981999114 697631.67012985 318336112.5228
381	19490136 207181 409501 338445462 5.020028158218 4910.900028158218 4889 276536.02417013 586975.79207309 1639333414.6081 5.7153750826233e+14
382	19697317 196914 409501 338445462 5.020028158218 4910.900028158218 4889 25 949.90075173728 880691.46173204 369300620.23669
387	19894231 207179 409503 338445464 5.020028158218 4910.900028158218 4889 276536.02417013 586975.79207309 1639271782.4218 5.7149255631601e+14
388	20101410 196906 409503 338445464 5.020028158218 4910.900028158218 4889 25 949.90075173728 880416.27038341 369151058.26819
389	20298316 150811 419750 338443039 5.383779664576 4910.766751628176 3194 76.253709476844 11538970.891596 8295209955.8773 4.5377057844841e+16
390	20449127 150973 419750 338443039 5.383779664576 4910.766751628176 3194 0.23829284211514 964.39981999114 696116.1732657 318229610.74354
391	20600100 150557 419536 338443034 5.37277499791 4910.75671496151 3188 76.253757932106 12633775.799201 9173946361.6861 5.7514340079425e+16
392	20750657 150681 419536 338443034 5.37277499791 4910.75671496151 3188 0.23829299353783 1057.4402012106 769431.55323888 403025329.80051
393	20901338 207285 409905 338426411 5.030984824884 4910.350984824884 4889 276126.32130513 593092.41255055 1639311367.9124 5.7154435156043e+14
394	21108623 197092 409905 338426411 5.030984824884 4910.350984824884 4889 25 951.4937054238 880532.57023727 369603801.23877
395	21305715 188715 409582 338447680 5.025074983816 4911.025074983816 4907 273952 319648 1456386176 4.3225372299469e+14
396	21494430 169087 409582 338447680 5.025074983816 4911.025074983816 4907 48 52 245349 12267413
397	21663517 188715 409579 338447677 5.025074983816 4911.025074983816 4907 285600 285600 1401439200 4.0025103552e+14
398	21852232 169087 409579 338447677 5.025074983816 4911.025074983816 4907 25 25 122675 3066875
399	22021319 183376 419504 338442314 5.358739371695 4910.697040157592 3885 112.33220971577 297747.15375429 234839137.27384 33249828730207
400	22204695 183498 419504 338442314 5.358739371695 4910.697040157592 3885 0.35103815536178 928.4631605133 730563.57151863 323361570.68005
401	22388193 182048 419534 338442333 5.37277499791 4910.710960263807 3857 119.59471107042 13625044.253776 9442617015.738 5.787092249461e+16
402	22570241 182245 419534 338442333 5.37277499791 4910.710960263807 3857 0.33333333333333 1141.7529844318 798014.50373732 407904774.37991
411	22752486 188715 409510 338447399 5.020074983816 4911.020074983816 4907 285600 285600 1401439200 4.0025103552e+14
412	22941201 169087 409510 338447399 5.020074983816 4911.020074983816 4907 25 25 122675 3066875
413	23110288 188715 409593 338447844 5.030074983816 4911.030074983816 4907 273952 319648 1456386176 4.3225372299469e+14
414	23299003 169087 409593 338447844 5.030074983816 4911.030074983816 4907 48 52 245349 12267413
415	23468090 182159 419514 338442323 5.359055982039 4910.697357407936 3857 119.59471107042 13625044.253776 9564825257.7305 5.95280873198e+16
416	23650249 182352 419514 338442323 5.359055982039 4910.697357407936 3857 0.33333333333333 1141.7529844318 808208.46456608 419544275.87292
417	23832601 183497 419509 338442319 5.359055982039 4910.697357407936 3885 112.33218447872 297747.15375429 234839159.65767 33249836262428
418	24016098 183613 419509 338442319 5.359055982039 4910.697357407936 3885 0.35103807649602 928.4631605133 730563.64117702 323361643.79087
423	24199711 47620 1499191 338068823 27.392561424412 4899.79492617296 1009 17.404236747704 289662.50429637 41100110.303172 5350587506935.3
424	24247331 47719 1499191 338068823 27.392561424412 4899.79492617296 1009 0.054388239836575 905.19532592616 128404.4544997 52227974.483258
425	24295050 55657 634022 338450488 7.026063903991 4904.324720571727 1181 5.2965711769977 10850920.981842 1551321902.7859 7.4661402762526e+15
426	24350707 55980 634022 338450488 7.026063903991 4904.324720571727 1181 0.023645407040168 904.24341515348 129984.03989486 52233557.493724
433	24406687 47241 418829 338442410 5.34831820103 4910.732682351297 1000 14.01396973189 284219.23039161 39946810.448511 5087666435812.6
434	24453928 47308 418829 338442410 5.34831820103 4910.732682351297 1000 0.043793655412157 888.4849211564 124800.13292691 49658784.473934
435	24501236 54380 418825 338443105 5.34831820103 4910.766827625508 1151 3.7035666217718 10767505.624023 1500411240.8374 7.0438680711276e+15
436	24555616 54588 418825 338443105 5.34831820103 4910.766827625508 1151 0.016533779561481 898.35937428042 125771.49023363 49317692.091243
443	24610204 41970 1763430 336023798 31.46056484832 4871.663421748386 890 6.6113392885681 289168.83822704 36205265.712658 4677624169072.4
444	24652174 42068 1763430 336023798 31.46056484832 4871.663421748386 890 0.020660435276775 903.65261945949 113112.61043236 45658328.799432
445	24694242 50132 634120 338231359 7.026063941209 4898.688087718431 1063 4.1908378365758 10848075.044294 1367635864.0241 6.448664602788e+15
446	24744374 50404 634120 338231359 7.026063941209 4898.688087718431 1063 0.018709097484713 904.3160193995 114604.84575136 45127526.517967
453	24794778 46226 2478646 337739342 37.142873489089 4893.782937535531 980 5.9652199963318 288170.88611417 40858624.38026 5354535945901.6
454	24841004 46325 2478646 337739342 37.142873489089 4893.782937535531 980 0.018641312488537 900.53401910677 127651.37615242 52266111.243345
455	24887329 53213 634058 338450524 7.026063928489 4904.324720596225 1128 4.2333356700844 10806408.229281 1537836659.7946 7.431796276607e+15
456	24940542 53442 634058 338450524 7.026063928489 4904.324720596225 1128 0.018898819955734 900.53401910677 128897.36005729 52026524.191915
463	24993984 41211 631995 336777802 7.559881692112 4878.7755828658 874 3.7310467902671 290770.91331994 35338928.385671 4555217827514.5
464	25035195 41333 631995 336777802 7.559881692112 4878.7755828658 874 0.011659521219585 908.6591041248 110404.88411466 44461489.635856
465	25076528 48728 584763 338231353 7.026063940463 4898.688087717685 1035 4.4376075694026 10903909.249498 1337478143.3327 6.3906651442434e+15
466	25125256 49055 584763 338231353 7.026063940463 4898.688087717685 1035 0.01981074807769 908.6591041248 112082.13811388 44706802.130161
473	25174311 10152 787774 337379720 5.736797798631 4869.850516174512 273 4.3129236655453 128 13651.52586026 1192903.8540036
474	25184463 13342 787774 337379720 5.736797798631 4869.850516174512 273 0.011231572045691 0.33333333333333 35.688022470686 8.1397668810799
475	25197805 11695 634040 338450506 7.026063914017 4904.324720581753 249 1.8666364717768 541.96722644168 11585.424516266 1644180.5048963
476	25209500 12074 634040 338450506 7.026063914017 4904.324720581753 249 0.0083331985347177 2.4194965466146 51.720645161902 32.768265802302
483	25221574 10205 625576 337276259 7.024903875616 4867.857460012238 274 4.906832474252 202.66666666667 13932.100397454 1276137.5521777
484	25231779 13402 625576 337276259 7.024903875616 4867.857460012238 274 0.012778209568365 0.66666666666667 36.735453132362 9.1564996634674
485	25245181 11699 634082 338450548 7.026165931792 4904.324720599528 249 1.8666364717768 541.96722644168 11585.307284634 1644075.1493718
486	25256880 12079 634082 338450548 7.026165931792 4904.324720599528 249 0.0083331985347177 2.4194965466146 51.7201218064 32.766166082824
493	25268959 10283 1067313 338018931 9.592786002502 4875.951602926624 277 3.5718047393181 202.66666666667 13954.952490546 1254660.8123553
494	25279242 13525 1067313 338018931 9.592786002502 4875.951602926624 277 0.0093015748419743 0.66666666666667 36.674566534771 8.8529423169881
495	25292767 11708 634100 338450566 7.026063937618 4904.324720605354 249 1.8666364717768 541.96722644168 11585.31485582 1644079.2321046
496	25304475 12088 634100 338450566 7.026063937618 4904.324720605354 249 0.0083331985347177 2.4194965466146 51.72015560634 32.766247451065
503	25316563 9970 911033 337254926 18.137215012788 4879.114376452146 268 2.806087249638 202.66666666667 13666.178437337 1253910.0785939
504	25326533 13107 911033 337254926 18.137215012788 4879.114376452146 268 0.0073075188792656 0.66666666666667 36.030016692575 9.0032135095795