file 31110971 1471642847                                        
version 2
run _18to20off-0-20160819-23:16:55-18453
attr configname _18to20off
attr datetime 20160819-23:16:55
attr experiment _18to20off
attr inifile omnetpp.ini
attr iterationvars $0=18
attr iterationvars2 "$0=18, $repetition=0"
attr measurement $0=18
attr network University
attr processid 18453
attr repetition 0
attr replication #0
attr resultdir /utmnt/ut/si/sinp1070
attr runnumber 0
attr seedset 0

vector 340  University.whostVideoConf.udpApp[0]  sentPk:vector(packetBytes)  ETV
attr interpolationmode  none
attr source  sentPk
attr title  "packets sent, vector(packetBytes)"
vector 76  University.profLaptop.udpApp[0]  sentPk:vector(packetBytes)  ETV
attr interpolationmode  none
attr source  sentPk
attr title  "packets sent, vector(packetBytes)"
vector 75  University.profLaptop.udpApp[0]  rcvdPk:vector(packetBytes)  ETV
attr interpolationmode  none
attr source  rcvdPk
attr title  "packets received, vector(packetBytes)"
vector 77  University.profLaptop.udpApp[0]  rcvdPkLifetime:vector  ETV
attr interpolationmode  none
attr source  messageAge(rcvdPk)
attr title  "received packet lifetime, vector"
attr unit  s
vector 171  University.whttpStudents[4].tcpApp[0]  rcvdPk:vector(packetBytes)  ETV
attr interpolationmode  none
attr source  rcvdPk
attr title  "packets received, vector(packetBytes)"
vector 173  University.whttpStudents[4].tcpApp[0]  endToEndDelay:vector  ETV
attr interpolationmode  none
attr source  messageAge(rcvdPk)
attr title  "end-to-end delay, vector"
attr unit  s
vector 174  University.whttpStudents[4].tcpApp[0]  numActiveSessions:vector  ETV
attr interpolationmode  sample-hold
attr source  sum(connect)
attr title  "number of active sessions, vector"
vector 603  University.whostVideoConf.wlan[0].outputHook[0]  "thruput (bit/sec)"  ETV
vector 604  University.whostVideoConf.wlan[0].outputHook[0]  packet/sec  ETV
vector 625  University.accessPoint.wlan[0].inputHook[0]  "thruput (bit/sec)"  ETV
vector 626  University.accessPoint.wlan[0].inputHook[0]  packet/sec  ETV
vector 633  University.accessPoint.eth[0].outputHook[0]  "thruput (bit/sec)"  ETV
vector 634  University.accessPoint.eth[0].outputHook[0]  packet/sec  ETV
vector 381  University.remoteR.eth[0].inputHook[0]  "thruput (bit/sec)"  ETV
vector 382  University.remoteR.eth[0].inputHook[0]  packet/sec  ETV
vector 387  University.remoteR.ppp[0].outputHook[0]  "thruput (bit/sec)"  ETV
vector 388  University.remoteR.ppp[0].outputHook[0]  packet/sec  ETV
vector 411  University.profLaptop.ppp[0].outputHook[0]  "thruput (bit/sec)"  ETV
vector 412  University.profLaptop.ppp[0].outputHook[0]  packet/sec  ETV
vector 393  University.mainR.ppp[0].inputHook[0]  "thruput (bit/sec)"  ETV
vector 394  University.mainR.ppp[0].inputHook[0]  packet/sec  ETV
vector 397  University.mainR.ppp[1].inputHook[0]  "thruput (bit/sec)"  ETV
vector 398  University.mainR.ppp[1].inputHook[0]  packet/sec  ETV
vector 395  University.mainR.ppp[1].outputHook[0]  "thruput (bit/sec)"  ETV
vector 396  University.mainR.ppp[1].outputHook[0]  packet/sec  ETV
vector 413  University.profLaptop.ppp[0].inputHook[0]  "thruput (bit/sec)"  ETV
vector 414  University.profLaptop.ppp[0].inputHook[0]  packet/sec  ETV
vector 222  University.whttpStudents[8].tcpApp[0]  numActiveSessions:vector  ETV
attr interpolationmode  sample-hold
attr source  sum(connect)
attr title  "number of active sessions, vector"
vector 399  University.mainR.ppp[2].outputHook[0]  "thruput (bit/sec)"  ETV
vector 400  University.mainR.ppp[2].outputHook[0]  packet/sec  ETV
vector 417  University.Server.ppp[0].inputHook[0]  "thruput (bit/sec)"  ETV
vector 418  University.Server.ppp[0].inputHook[0]  packet/sec  ETV
vector 415  University.Server.ppp[0].outputHook[0]  "thruput (bit/sec)"  ETV
vector 416  University.Server.ppp[0].outputHook[0]  packet/sec  ETV
vector 401  University.mainR.ppp[2].inputHook[0]  "thruput (bit/sec)"  ETV
vector 402  University.mainR.ppp[2].inputHook[0]  packet/sec  ETV
vector 172  University.whttpStudents[4].tcpApp[0]  sentPk:vector(packetBytes)  ETV
attr interpolationmode  none
attr source  sentPk
attr title  "packets sent, vector(packetBytes)"
vector 94  University.Server.tcpApp[0]  rcvdPk:vector(packetBytes)  ETV
attr interpolationmode  none
attr source  rcvdPk
attr title  "packets received, vector(packetBytes)"
vector 96  University.Server.tcpApp[0]  endToEndDelay:vector  ETV
attr interpolationmode  none
attr source  messageAge(rcvdPk)
attr title  "end-to-end delay, vector"
attr unit  s
vector 95  University.Server.tcpApp[0]  sentPk:vector(packetBytes)  ETV
attr interpolationmode  none
attr source  sentPk
attr title  "packets sent, vector(packetBytes)"
vector 635  University.accessPoint.eth[0].inputHook[0]  "thruput (bit/sec)"  ETV
vector 636  University.accessPoint.eth[0].inputHook[0]  packet/sec  ETV
vector 623  University.accessPoint.wlan[0].outputHook[0]  "thruput (bit/sec)"  ETV
vector 624  University.accessPoint.wlan[0].outputHook[0]  packet/sec  ETV
vector 379  University.remoteR.eth[0].outputHook[0]  "thruput (bit/sec)"  ETV
vector 380  University.remoteR.eth[0].outputHook[0]  packet/sec  ETV
vector 465  University.whttpStudents[4].wlan[0].inputHook[0]  "thruput (bit/sec)"  ETV
vector 466  University.whttpStudents[4].wlan[0].inputHook[0]  packet/sec  ETV
vector 463  University.whttpStudents[4].wlan[0].outputHook[0]  "thruput (bit/sec)"  ETV
vector 464  University.whttpStudents[4].wlan[0].outputHook[0]  packet/sec  ETV
vector 150  University.whttpStudents[2].tcpApp[0]  numActiveSessions:vector  ETV
attr interpolationmode  sample-hold
attr source  sum(connect)
attr title  "number of active sessions, vector"
vector 475  University.whttpStudents[5].wlan[0].inputHook[0]  "thruput (bit/sec)"  ETV
vector 476  University.whttpStudents[5].wlan[0].inputHook[0]  packet/sec  ETV
vector 495  University.whttpStudents[7].wlan[0].inputHook[0]  "thruput (bit/sec)"  ETV
vector 496  University.whttpStudents[7].wlan[0].inputHook[0]  packet/sec  ETV
vector 455  University.whttpStudents[3].wlan[0].inputHook[0]  "thruput (bit/sec)"  ETV
vector 456  University.whttpStudents[3].wlan[0].inputHook[0]  packet/sec  ETV
vector 565  University.whttpStudents[14].wlan[0].inputHook[0]  "thruput (bit/sec)"  ETV
vector 566  University.whttpStudents[14].wlan[0].inputHook[0]  packet/sec  ETV
vector 485  University.whttpStudents[6].wlan[0].inputHook[0]  "thruput (bit/sec)"  ETV
vector 486  University.whttpStudents[6].wlan[0].inputHook[0]  packet/sec  ETV
vector 435  University.whttpStudents[1].wlan[0].inputHook[0]  "thruput (bit/sec)"  ETV
vector 436  University.whttpStudents[1].wlan[0].inputHook[0]  packet/sec  ETV
vector 525  University.whttpStudents[10].wlan[0].inputHook[0]  "thruput (bit/sec)"  ETV
vector 526  University.whttpStudents[10].wlan[0].inputHook[0]  packet/sec  ETV
vector 425  University.whttpStudents[0].wlan[0].inputHook[0]  "thruput (bit/sec)"  ETV
vector 426  University.whttpStudents[0].wlan[0].inputHook[0]  packet/sec  ETV
vector 585  University.whttpStudents[16].wlan[0].inputHook[0]  "thruput (bit/sec)"  ETV
vector 586  University.whttpStudents[16].wlan[0].inputHook[0]  packet/sec  ETV
vector 615  University.whostFTP.wlan[0].inputHook[0]  "thruput (bit/sec)"  ETV
vector 616  University.whostFTP.wlan[0].inputHook[0]  packet/sec  ETV
vector 605  University.whostVideoConf.wlan[0].inputHook[0]  "thruput (bit/sec)"  ETV
vector 606  University.whostVideoConf.wlan[0].inputHook[0]  packet/sec  ETV
vector 555  University.whttpStudents[13].wlan[0].inputHook[0]  "thruput (bit/sec)"  ETV
vector 556  University.whttpStudents[13].wlan[0].inputHook[0]  packet/sec  ETV
vector 515  University.whttpStudents[9].wlan[0].inputHook[0]  "thruput (bit/sec)"  ETV
vector 516  University.whttpStudents[9].wlan[0].inputHook[0]  packet/sec  ETV
vector 575  University.whttpStudents[15].wlan[0].inputHook[0]  "thruput (bit/sec)"  ETV
vector 576  University.whttpStudents[15].wlan[0].inputHook[0]  packet/sec  ETV
vector 535  University.whttpStudents[11].wlan[0].inputHook[0]  "thruput (bit/sec)"  ETV
vector 536  University.whttpStudents[11].wlan[0].inputHook[0]  packet/sec  ETV
vector 595  University.whttpStudents[17].wlan[0].inputHook[0]  "thruput (bit/sec)"  ETV
vector 596  University.whttpStudents[17].wlan[0].inputHook[0]  packet/sec  ETV
vector 505  University.whttpStudents[8].wlan[0].inputHook[0]  "thruput (bit/sec)"  ETV
vector 506  University.whttpStudents[8].wlan[0].inputHook[0]  packet/sec  ETV
vector 545  University.whttpStudents[12].wlan[0].inputHook[0]  "thruput (bit/sec)"  ETV
vector 546  University.whttpStudents[12].wlan[0].inputHook[0]  packet/sec  ETV
vector 445  University.whttpStudents[2].wlan[0].inputHook[0]  "thruput (bit/sec)"  ETV
vector 446  University.whttpStudents[2].wlan[0].inputHook[0]  packet/sec  ETV
vector 391  University.mainR.ppp[0].outputHook[0]  "thruput (bit/sec)"  ETV
vector 392  University.mainR.ppp[0].outputHook[0]  packet/sec  ETV
vector 389  University.remoteR.ppp[0].inputHook[0]  "thruput (bit/sec)"  ETV
vector 390  University.remoteR.ppp[0].inputHook[0]  packet/sec  ETV
vector 148  University.whttpStudents[2].tcpApp[0]  sentPk:vector(packetBytes)  ETV
attr interpolationmode  none
attr source  sentPk
attr title  "packets sent, vector(packetBytes)"
vector 147  University.whttpStudents[2].tcpApp[0]  rcvdPk:vector(packetBytes)  ETV
attr interpolationmode  none
attr source  rcvdPk
attr title  "packets received, vector(packetBytes)"
vector 149  University.whttpStudents[2].tcpApp[0]  endToEndDelay:vector  ETV
attr interpolationmode  none
attr source  messageAge(rcvdPk)
attr title  "end-to-end delay, vector"
attr unit  s
vector 138  University.whttpStudents[1].tcpApp[0]  numActiveSessions:vector  ETV
attr interpolationmode  sample-hold
attr source  sum(connect)
attr title  "number of active sessions, vector"
vector 136  University.whttpStudents[1].tcpApp[0]  sentPk:vector(packetBytes)  ETV
attr interpolationmode  none
attr source  sentPk
attr title  "packets sent, vector(packetBytes)"
vector 503  University.whttpStudents[8].wlan[0].outputHook[0]  "thruput (bit/sec)"  ETV
vector 504  University.whttpStudents[8].wlan[0].outputHook[0]  packet/sec  ETV
vector 433  University.whttpStudents[1].wlan[0].outputHook[0]  "thruput (bit/sec)"  ETV
vector 434  University.whttpStudents[1].wlan[0].outputHook[0]  packet/sec  ETV
vector 282  University.whttpStudents[13].tcpApp[0]  numActiveSessions:vector  ETV
attr interpolationmode  sample-hold
attr source  sum(connect)
attr title  "number of active sessions, vector"
vector 270  University.whttpStudents[12].tcpApp[0]  numActiveSessions:vector  ETV
attr interpolationmode  sample-hold
attr source  sum(connect)
attr title  "number of active sessions, vector"
vector 198  University.whttpStudents[6].tcpApp[0]  numActiveSessions:vector  ETV
attr interpolationmode  sample-hold
attr source  sum(connect)
attr title  "number of active sessions, vector"
vector 330  University.whttpStudents[17].tcpApp[0]  numActiveSessions:vector  ETV
attr interpolationmode  sample-hold
attr source  sum(connect)
attr title  "number of active sessions, vector"
vector 318  University.whttpStudents[16].tcpApp[0]  numActiveSessions:vector  ETV
attr interpolationmode  sample-hold
attr source  sum(connect)
attr title  "number of active sessions, vector"
vector 553  University.whttpStudents[13].wlan[0].outputHook[0]  "thruput (bit/sec)"  ETV
vector 554  University.whttpStudents[13].wlan[0].outputHook[0]  packet/sec  ETV
vector 543  University.whttpStudents[12].wlan[0].outputHook[0]  "thruput (bit/sec)"  ETV
vector 544  University.whttpStudents[12].wlan[0].outputHook[0]  packet/sec  ETV
vector 483  University.whttpStudents[6].wlan[0].outputHook[0]  "thruput (bit/sec)"  ETV
vector 484  University.whttpStudents[6].wlan[0].outputHook[0]  packet/sec  ETV
vector 593  University.whttpStudents[17].wlan[0].outputHook[0]  "thruput (bit/sec)"  ETV
vector 594  University.whttpStudents[17].wlan[0].outputHook[0]  packet/sec  ETV
vector 583  University.whttpStudents[16].wlan[0].outputHook[0]  "thruput (bit/sec)"  ETV
vector 584  University.whttpStudents[16].wlan[0].outputHook[0]  packet/sec  ETV
vector 135  University.whttpStudents[1].tcpApp[0]  rcvdPk:vector(packetBytes)  ETV
attr interpolationmode  none
attr source  rcvdPk
attr title  "packets received, vector(packetBytes)"
vector 137  University.whttpStudents[1].tcpApp[0]  endToEndDelay:vector  ETV
attr interpolationmode  none
attr source  messageAge(rcvdPk)
attr title  "end-to-end delay, vector"
attr unit  s
vector 306  University.whttpStudents[15].tcpApp[0]  numActiveSessions:vector  ETV
attr interpolationmode  sample-hold
attr source  sum(connect)
attr title  "number of active sessions, vector"
vector 294  University.whttpStudents[14].tcpApp[0]  numActiveSessions:vector  ETV
attr interpolationmode  sample-hold
attr source  sum(connect)
attr title  "number of active sessions, vector"
vector 573  University.whttpStudents[15].wlan[0].outputHook[0]  "thruput (bit/sec)"  ETV
vector 574  University.whttpStudents[15].wlan[0].outputHook[0]  packet/sec  ETV
vector 563  University.whttpStudents[14].wlan[0].outputHook[0]  "thruput (bit/sec)"  ETV
vector 564  University.whttpStudents[14].wlan[0].outputHook[0]  packet/sec  ETV
vector 613  University.whostFTP.wlan[0].outputHook[0]  "thruput (bit/sec)"  ETV
vector 614  University.whostFTP.wlan[0].outputHook[0]  packet/sec  ETV
vector 513  University.whttpStudents[9].wlan[0].outputHook[0]  "thruput (bit/sec)"  ETV
vector 514  University.whttpStudents[9].wlan[0].outputHook[0]  packet/sec  ETV
vector 186  University.whttpStudents[5].tcpApp[0]  numActiveSessions:vector  ETV
attr interpolationmode  sample-hold
attr source  sum(connect)
attr title  "number of active sessions, vector"
vector 473  University.whttpStudents[5].wlan[0].outputHook[0]  "thruput (bit/sec)"  ETV
vector 474  University.whttpStudents[5].wlan[0].outputHook[0]  packet/sec  ETV
vector 126  University.whttpStudents[0].tcpApp[0]  numActiveSessions:vector  ETV
attr interpolationmode  sample-hold
attr source  sum(connect)
attr title  "number of active sessions, vector"
vector 124  University.whttpStudents[0].tcpApp[0]  sentPk:vector(packetBytes)  ETV
attr interpolationmode  none
attr source  sentPk
attr title  "packets sent, vector(packetBytes)"
vector 123  University.whttpStudents[0].tcpApp[0]  rcvdPk:vector(packetBytes)  ETV
attr interpolationmode  none
attr source  rcvdPk
attr title  "packets received, vector(packetBytes)"
vector 125  University.whttpStudents[0].tcpApp[0]  endToEndDelay:vector  ETV
attr interpolationmode  none
attr source  messageAge(rcvdPk)
attr title  "end-to-end delay, vector"
attr unit  s
vector 258  University.whttpStudents[11].tcpApp[0]  numActiveSessions:vector  ETV
attr interpolationmode  sample-hold
attr source  sum(connect)
attr title  "number of active sessions, vector"
vector 162  University.whttpStudents[3].tcpApp[0]  numActiveSessions:vector  ETV
attr interpolationmode  sample-hold
attr source  sum(connect)
attr title  "number of active sessions, vector"
vector 160  University.whttpStudents[3].tcpApp[0]  sentPk:vector(packetBytes)  ETV
attr interpolationmode  none
attr source  sentPk
attr title  "packets sent, vector(packetBytes)"
vector 533  University.whttpStudents[11].wlan[0].outputHook[0]  "thruput (bit/sec)"  ETV
vector 534  University.whttpStudents[11].wlan[0].outputHook[0]  packet/sec  ETV
vector 453  University.whttpStudents[3].wlan[0].outputHook[0]  "thruput (bit/sec)"  ETV
vector 454  University.whttpStudents[3].wlan[0].outputHook[0]  packet/sec  ETV
vector 443  University.whttpStudents[2].wlan[0].outputHook[0]  "thruput (bit/sec)"  ETV
vector 444  University.whttpStudents[2].wlan[0].outputHook[0]  packet/sec  ETV
vector 210  University.whttpStudents[7].tcpApp[0]  numActiveSessions:vector  ETV
attr interpolationmode  sample-hold
attr source  sum(connect)
attr title  "number of active sessions, vector"
vector 493  University.whttpStudents[7].wlan[0].outputHook[0]  "thruput (bit/sec)"  ETV
vector 494  University.whttpStudents[7].wlan[0].outputHook[0]  packet/sec  ETV
vector 423  University.whttpStudents[0].wlan[0].outputHook[0]  "thruput (bit/sec)"  ETV
vector 424  University.whttpStudents[0].wlan[0].outputHook[0]  packet/sec  ETV
vector 159  University.whttpStudents[3].tcpApp[0]  rcvdPk:vector(packetBytes)  ETV
attr interpolationmode  none
attr source  rcvdPk
attr title  "packets received, vector(packetBytes)"
vector 161  University.whttpStudents[3].tcpApp[0]  endToEndDelay:vector  ETV
attr interpolationmode  none
attr source  messageAge(rcvdPk)
attr title  "end-to-end delay, vector"
attr unit  s
vector 246  University.whttpStudents[10].tcpApp[0]  numActiveSessions:vector  ETV
attr interpolationmode  sample-hold
attr source  sum(connect)
attr title  "number of active sessions, vector"
vector 523  University.whttpStudents[10].wlan[0].outputHook[0]  "thruput (bit/sec)"  ETV
vector 524  University.whttpStudents[10].wlan[0].outputHook[0]  packet/sec  ETV
vector 358  University.whostFTP.tcpApp[0]  numActiveSessions:vector  ETV
attr interpolationmode  sample-hold
attr source  sum(connect)
attr title  "number of active sessions, vector"
vector 234  University.whttpStudents[9].tcpApp[0]  numActiveSessions:vector  ETV
attr interpolationmode  sample-hold
attr source  sum(connect)
attr title  "number of active sessions, vector"
75	17326 4240529 62792 288765657 5.035289640475 4802.755289640475 119943 1400 1400 167920200 235088280000
76	4257855 4242411 62752 288765631 5.028607574598 4802.748607574598 119944 1400 1400 167921600 235090240000
77	8500266 5437927 62792 288764967 5.035289640475 4802.715289640475 119942 0.016345623566 0.175129104889 1987.7359682548 33.182601416932
94	13938193 36454 178233 288576069 6.318654257284 4799.156290781099 1130 1 1 1130 1130
95	13974647 42294 178233 288576069 6.318654257284 4799.156290781099 1130 59 6208781 919374413 1.4564603216065e+15
96	14016941 51138 178233 288576069 6.318654257284 4799.156290781099 1130 0.034685923397 0.052607603403 39.369907918402 1.3722484506161
123	14068079 9096 1372110 287923307 29.985679326592 4743.233704271481 236 4784 4631559 183495541 2.7396196190246e+14
124	14077175 7880 1288468 287809818 29.34579609426 4742.495781772007 236 1 1 236 236
125	14085055 10988 1372110 287923307 29.985679326592 4743.233704271481 236 0.231510745676 27.361197537016 1404.6197985915 18725.847815012
126	14096043 15751 1286778 287923307 29.273180038266 4743.233704271481 472 0 1 236 236
135	14111794 8692 861447 287464311 14.963216279135 4734.449992723498 226 6463 4539124 193056639 3.201794816544e+14
136	14120486 7523 563933 287421023 8.338803353608 4733.905797526955 226 1 1 226 226
137	14128009 10485 861447 287464311 14.963216279135 4734.449992723498 226 0.21973066061 24.924602025859 1391.1404328599 17874.32631383
138	14138494 15041 562372 287464311 8.265727300054 4734.449992723498 452 0 1 226 226
147	14153535 8161 559680 287423087 8.191313623074 4733.983820041125 213 2690 4355760 169542517 2.6898189970478e+14
148	14161696 7069 412271 287193219 7.393602008438 4728.988810897217 213 1 1 213 213
149	14168765 9880 559680 287423087 8.191313623074 4733.983820041125 213 0.145754063434 22.893570358803 1337.0981523375 18657.450219552
150	14178645 14135 389238 287423087 7.276922455824 4733.983820041125 426 0 1 213 213
159	14192780 8952 2513282 287939963 44.828736168565 4745.317824170263 233 130 3807746 195422719 3.1345829550605e+14
160	14201732 7786 1564232 288264600 33.425527347202 4795.042451242548 234 1 1 234 234
161	14209518 10830 2513282 287939963 44.828736168565 4745.317824170263 233 0.072180684926 24.280908227518 1493.5282915397 20708.483071273
162	14220348 15530 1563037 288263559 33.352866330544 4794.97018838589 467 0 1 234 234
171	14235878 8532 170881 288730671 5.58200970329 4799.964795918923 222 59 6208781 177055511 2.7862176524313e+14
172	14244410 7339 177537 288575274 6.283968243767 4799.121550767582 221 1 1 221 221
173	14251749 10325 170881 288730671 5.58200970329 4799.964795918923 222 0.172855221745 25.940982907081 1424.1808028889 19339.744072082
174	14262074 14940 170881 288730671 5.58200970329 4799.964795918923 443 -1 0 -222 222
186	14277014 1805 1217538 287128488 23.533441764345 4722.028601092162 53 1 53 1431 51039
198	14278819 1799 769905 287174527 9.808238508316 4726.19939154332 53 1 53 1431 51039
210	14280618 1841 2155147 287182554 38.973811287734 4727.420182596102 54 1 54 1485 53955
222	14282459 1804 175758 287628199 6.173669943639 4736.264970875052 53 1 53 1431 51039
234	14284263 1841 5057399 287937810 85.543469681688 4745.179226459541 54 1 54 1485 53955
246	14286104 1811 2823592 288198670 47.252548930138 4784.979040614021 53 1 53 1431 51039
258	14287915 1741 1526746 287930653 30.604713869128 4744.138106434815 51 1 51 1326 45526
270	14289656 1801 765760 285032861 9.625637590171 4696.888791721906 53 1 53 1431 51039
282	14291457 1797 758938 288256449 9.2839418944 4793.935741310536 53 1 53 1431 51039
294	14293254 1871 887647 288133416 17.039084125653 4774.883206403586 55 1 55 1540 56980
306	14295125 1835 866981 288746653 15.321478115238 4801.166844477666 54 1 54 1485 53955
318	14296960 1905 801424 288005970 11.562519877009 4755.221261060782 56 1 56 1596 60116
330	14298865 1838 792122 288406323 11.067409376338 4795.850639768188 54 1 54 1485 53955
340	14300703 4362353 62551 288765349 5.018944016909 4802.738944016909 119944 1400 1400 167921600 235090240000
358	18663056 1360 4425530 288731938 75 4800 64 1 64 2080 89440
379	18664416 182091 351946 288758311 6.173741789993 4801.130453278201 3864 158.41155974479 11251457.325874 7224009593.7993 3.4700518055194e+16
380	18846507 181947 351946 288758311 6.173741789993 4801.130453278201 3864 0.10040912421812 939.61795044589 606715.87714118 243317704.5308
381	19028454 198109 174824 288764872 5.019332973809 4801.699332973809 4778 279622.65420975 584825.65474547 1569382668.0102 5.3249168006071e+14
382	19226563 186274 174824 288764872 5.019332973809 4801.699332973809 4778 25 931.42444803997 758444.05557689 284283297.60961
387	19412837 198118 174826 288764874 5.019332973809 4801.699332973809 4778 279622.65420975 584825.65474547 1569338677.8487 5.3246014251835e+14
388	19610955 186268 174826 288764874 5.019332973809 4801.699332973809 4778 25 931.42444803997 758247.67092732 284184026.22311
389	19797223 182087 406720 288758309 6.283892230973 4801.130453278201 3864 144.13504959658 11251457.325874 7223112649.3797 3.4699361943195e+16
390	19979310 181948 406720 288758309 6.283892230973 4801.130453278201 3864 0.10040912421812 939.61795044589 606458.32198749 243208226.37905
391	20161258 181528 406653 288759858 6.273855564307 4801.265031281647 3853 38.674365989114 13517131.633363 7947127602.3665 4.5331366191028e+16
392	20342786 181392 406653 288759858 6.273855564307 4801.265031281647 3853 0.10040912421812 1132.5638550957 666841.39781739 317357999.00764
393	20524178 198008 174901 288764949 5.030289640475 4801.710289640475 4778 279373.85298278 585366.65690909 1569350928.7246 5.3249687276462e+14
394	20722186 186118 174901 288764949 5.030289640475 4801.710289640475 4778 25 930.90598635595 758277.76303555 284296625.70185
395	20908304 184061 174911 288757078 5.033607574598 4801.033607574598 4797 285376 308224 1423738176 4.2257945752781e+14
396	21092365 164873 174911 288757078 5.033607574598 4801.033607574598 4797 49 51 239849 11992533
397	21257238 184061 174908 288757075 5.033607574598 4801.033607574598 4797 285600 285600 1370023200 3.9127862592e+14
398	21441299 164873 174908 288757075 5.033607574598 4801.033607574598 4797 25 25 119925 2998125
399	21606172 199445 176643 288757787 5.077232199433 4801.068491244745 4233 52.987283666885 293156.9078148 201281821.10389 24933649538875
400	21805617 199415 176643 288757787 5.077232199433 4801.068491244745 4233 0.16558526145902 913.51671170198 625584.90994634 242451257.25781
401	22005032 197930 177097 288759856 5.128189566223 4801.265031281647 4204 78.611397428487 13517834.741788 8056413635.2316 4.5439708447175e+16
402	22202962 198060 177097 288759856 5.128189566223 4801.265031281647 4204 0.22332783360366 1134.5613222122 682157.75658079 320007785.47541
411	22401022 184061 174896 288757063 5.028607574598 4801.028607574598 4797 285600 285600 1370023200 3.9127862592e+14
412	22585083 164873 174896 288757063 5.028607574598 4801.028607574598 4797 25 25 119925 2998125
413	22749956 184061 174921 288757088 5.038607574598 4801.038607574598 4797 285376 308224 1423738176 4.2257945752781e+14
414	22934017 164873 174921 288757088 5.038607574598 4801.038607574598 4797 49 51 239849 11992533
415	23098890 197957 176684 288759632 5.101112194569 4801.237953909993 4204 78.611403046443 13519403.166822 8131621539.6613 4.6309172856235e+16
416	23296847 198056 176684 288759632 5.101112194569 4801.237953909993 4204 0.22332784956376 1134.6929612221 688431.55529827 326136798.403
417	23494903 199469 176680 288757993 5.101112194569 4801.092371239881 4233 52.987278051581 293156.9078148 201281827.98258 24933651343739
418	23694372 199458 176680 288757993 5.101112194569 4801.092371239881 4233 0.16558524391119 913.51671170198 625584.93124351 242451274.70885
423	23893830 64305 2193922 287809204 29.273180038266 4736.836554978087 1362 6.7172344187583 249590.13094606 33107551.537529 3255770164817.6
424	23958135 64428 2193922 287809204 29.273180038266 4736.836554978087 1362 0.02099135755862 779.96915920644 103433.69492845 31776676.681239
425	24022563 68624 404145 288264301 6.174830003961 4742.495781772007 1453 6.9240532767747 9233151.4562805 1249316396.7817 4.9408951512902e+15
426	24091187 68815 404145 288264301 6.174830003961 4742.495781772007 1453 0.030910952128459 769.42928802337 104697.13732322 34569684.566416
433	24160002 64541 752810 287419858 8.265727300054 4703.325566848878 1368 7.5538206679618 274636.13012269 36141186.422294 3792759785359.9
434	24224543 64607 752810 287419858 8.265727300054 4703.325566848878 1368 0.023605689587381 858.23790663342 112915.08687323 37020830.208907
435	24289150 68687 404133 288264289 6.174830003351 4733.905797526955 1456 5.102955766057 10289774.942354 1343611543.7017 5.6101904088909e+15
436	24357837 68901 404133 288264289 6.174830003351 4733.905797526955 1456 0.02278105252704 858.23790663342 112565.28459188 39231028.986577
443	24426738 60699 1892314 287425194 7.276922455824 4733.038273814609 1287 11.56609839196 267467.78391001 30493726.472448 3122515398803.8
444	24487437 60410 1892314 287425194 7.276922455824 4733.038273814609 1287 0.036144057474876 835.83682471878 95269.87819276 30478419.558064
445	24547847 65083 404439 288264261 6.174829992747 4733.111065146905 1381 3.5528895829603 10783108.997573 1141506404.9935 4.7202175887868e+15
446	24612930 64944 404439 288264261 6.174829992747 4733.111065146905 1381 0.015861114209644 898.83370515651 95668.784101055 33020784.574381
453	24677874 68074 1759040 288757463 33.352866330544 4801.058070087278 1443 15.007190046342 279554.37994507 35955257.056274 3645114298779.5
454	24745948 68191 1759040 288757463 33.352866330544 4801.058070087278 1443 0.046897468894818 873.60743732834 112335.06349711 35578907.863604
455	24814139 71839 404115 288758357 6.174829994127 4801.130861422334 1523 3.9865268855385 10659034.687411 1347119034.998 5.5451018972139e+15
456	24885978 72014 404115 288758357 6.174829994127 4801.130861422334 1523 0.017796995024725 888.55273968613 112837.16459666 38779859.850411
463	24957992 66339 366136 288574136 6.212901198057 4725.023856749561 1402 3.5252349865821 288913.04962178 32590127.966028 3209307603730.4
464	25024331 66387 366136 288574136 6.212901198057 4725.023856749561 1402 0.011016359333069 902.85328006806 101820.02043 31323323.440787
465	25090718 70237 352108 288575270 6.174830022787 4795.04196524294 1486 5.1748107432727 10834239.360817 1210359297.2003 4.8599421613233e+15
466	25160955 70419 352108 288575270 6.174830022787 4795.04196524294 1486 0.023101833675324 902.85328006806 101404.74702176 34000876.043699
473	25231374 9773 1253868 288082340 23.533441764345 4743.028601092162 264 3.5386290591557 202.66666666667 13273.990216689 1182676.492684
474	25241147 12887 1253868 288082340 23.533441764345 4743.028601092162 264 0.0092151798415514 0.66666666666667 34.706571744849 8.186433342192
475	25254034 8579 404101 288264249 6.17482998791 4715.614573513134 183 2.2873005048734 376.99212930316 5695.4898535982 621198.54392609
476	25262613 8888 404101 288264249 6.17482998791 4715.614573513134 183 0.010211162968185 1.6830005772463 25.426293989278 12.380391899037
483	25271501 9757 823794 288109540 9.808238508316 4747.19939154332 264 3.4731925299736 202.66666666667 13280.046513417 1182844.5787029
484	25281258 12869 823794 288109540 9.808238508316 4747.19939154332 264 0.0090447722134728 0.66666666666667 34.722343350911 8.1875732484612
485	25294127 8570 404127 288264283 6.174830000907 4715.614573526131 183 2.2873005048734 376.99212930316 5695.4896883719 621198.52568238
486	25302697 8878 404127 288264283 6.174830000907 4715.614573526131 183 0.010211162968185 1.6830005772463 25.42629325166 12.380391535443
493	25311575 9968 2191618 288117593 38.973811287734 4748.420182596102 269 4.3824058692512 202.66666666667 13535.898613322 1204724.0921071
494	25321543 13141 2191618 288117593 38.973811287734 4748.420182596102 269 0.011412515284508 0.66666666666667 35.388624861081 8.3359531950499
495	25334684 8574 404107 288264255 6.174829988464 4715.614573513688 183 2.2873005048734 376.99212930316 5695.4894361641 621198.50006179
496	25343258 8884 404107 288264255 6.174829988464 4715.614573513688 183 0.010211162968185 1.6830005772463 25.426292125732 12.380391024828
503	25352142 9780 718848 288174742 6.173669943639 4757.264970875052 264 4.3736046850244 202.66666666667 13260.632546096 1182380.9841189
504	25361922 12890 718848 288174742 6.173669943639 4757.264970875052 264 0.011389595533918 0.66666666666667 34.671786144348 8.1844292964756
505	25374812 8568 404199 288264355 6.174932016347 4715.614573541571 183 2.2873005048734 376.99212930316 5695.5071151671 621205.34404682