file 30075643 1471644540                                        
version 2
run _18to20off-7-20160819-23:42:23-18834
attr configname _18to20off
attr datetime 20160819-23:42:23
attr experiment _18to20off
attr inifile omnetpp.ini
attr iterationvars $0=18
attr iterationvars2 "$0=18, $repetition=7"
attr measurement $0=18
attr network University
attr processid 18834
attr repetition 7
attr replication #7
attr resultdir /utmnt/ut/si/sinp1070
attr runnumber 7
attr seedset 7

vector 340  University.whostVideoConf.udpApp[0]  sentPk:vector(packetBytes)  ETV
attr interpolationmode  none
attr source  sentPk
attr title  "packets sent, vector(packetBytes)"
vector 75  University.profLaptop.udpApp[0]  rcvdPk:vector(packetBytes)  ETV
attr interpolationmode  none
attr source  rcvdPk
attr title  "packets received, vector(packetBytes)"
vector 77  University.profLaptop.udpApp[0]  rcvdPkLifetime:vector  ETV
attr interpolationmode  none
attr source  messageAge(rcvdPk)
attr title  "received packet lifetime, vector"
attr unit  s
vector 76  University.profLaptop.udpApp[0]  sentPk:vector(packetBytes)  ETV
attr interpolationmode  none
attr source  sentPk
attr title  "packets sent, vector(packetBytes)"
vector 413  University.profLaptop.ppp[0].inputHook[0]  "thruput (bit/sec)"  ETV
vector 414  University.profLaptop.ppp[0].inputHook[0]  packet/sec  ETV
vector 603  University.whostVideoConf.wlan[0].outputHook[0]  "thruput (bit/sec)"  ETV
vector 604  University.whostVideoConf.wlan[0].outputHook[0]  packet/sec  ETV
vector 625  University.accessPoint.wlan[0].inputHook[0]  "thruput (bit/sec)"  ETV
vector 626  University.accessPoint.wlan[0].inputHook[0]  packet/sec  ETV
vector 633  University.accessPoint.eth[0].outputHook[0]  "thruput (bit/sec)"  ETV
vector 634  University.accessPoint.eth[0].outputHook[0]  packet/sec  ETV
vector 381  University.remoteR.eth[0].inputHook[0]  "thruput (bit/sec)"  ETV
vector 382  University.remoteR.eth[0].inputHook[0]  packet/sec  ETV
vector 387  University.remoteR.ppp[0].outputHook[0]  "thruput (bit/sec)"  ETV
vector 388  University.remoteR.ppp[0].outputHook[0]  packet/sec  ETV
vector 393  University.mainR.ppp[0].inputHook[0]  "thruput (bit/sec)"  ETV
vector 394  University.mainR.ppp[0].inputHook[0]  packet/sec  ETV
vector 198  University.whttpStudents[6].tcpApp[0]  numActiveSessions:vector  ETV
attr interpolationmode  sample-hold
attr source  sum(connect)
attr title  "number of active sessions, vector"
vector 411  University.profLaptop.ppp[0].outputHook[0]  "thruput (bit/sec)"  ETV
vector 412  University.profLaptop.ppp[0].outputHook[0]  packet/sec  ETV
vector 397  University.mainR.ppp[1].inputHook[0]  "thruput (bit/sec)"  ETV
vector 398  University.mainR.ppp[1].inputHook[0]  packet/sec  ETV
vector 395  University.mainR.ppp[1].outputHook[0]  "thruput (bit/sec)"  ETV
vector 396  University.mainR.ppp[1].outputHook[0]  packet/sec  ETV
vector 318  University.whttpStudents[16].tcpApp[0]  numActiveSessions:vector  ETV
attr interpolationmode  sample-hold
attr source  sum(connect)
attr title  "number of active sessions, vector"
vector 379  University.remoteR.eth[0].outputHook[0]  "thruput (bit/sec)"  ETV
vector 380  University.remoteR.eth[0].outputHook[0]  packet/sec  ETV
vector 635  University.accessPoint.eth[0].inputHook[0]  "thruput (bit/sec)"  ETV
vector 636  University.accessPoint.eth[0].inputHook[0]  packet/sec  ETV
vector 623  University.accessPoint.wlan[0].outputHook[0]  "thruput (bit/sec)"  ETV
vector 624  University.accessPoint.wlan[0].outputHook[0]  packet/sec  ETV
vector 475  University.whttpStudents[5].wlan[0].inputHook[0]  "thruput (bit/sec)"  ETV
vector 476  University.whttpStudents[5].wlan[0].inputHook[0]  packet/sec  ETV
vector 495  University.whttpStudents[7].wlan[0].inputHook[0]  "thruput (bit/sec)"  ETV
vector 496  University.whttpStudents[7].wlan[0].inputHook[0]  packet/sec  ETV
vector 525  University.whttpStudents[10].wlan[0].inputHook[0]  "thruput (bit/sec)"  ETV
vector 526  University.whttpStudents[10].wlan[0].inputHook[0]  packet/sec  ETV
vector 425  University.whttpStudents[0].wlan[0].inputHook[0]  "thruput (bit/sec)"  ETV
vector 426  University.whttpStudents[0].wlan[0].inputHook[0]  packet/sec  ETV
vector 445  University.whttpStudents[2].wlan[0].inputHook[0]  "thruput (bit/sec)"  ETV
vector 446  University.whttpStudents[2].wlan[0].inputHook[0]  packet/sec  ETV
vector 435  University.whttpStudents[1].wlan[0].inputHook[0]  "thruput (bit/sec)"  ETV
vector 436  University.whttpStudents[1].wlan[0].inputHook[0]  packet/sec  ETV
vector 465  University.whttpStudents[4].wlan[0].inputHook[0]  "thruput (bit/sec)"  ETV
vector 466  University.whttpStudents[4].wlan[0].inputHook[0]  packet/sec  ETV
vector 545  University.whttpStudents[12].wlan[0].inputHook[0]  "thruput (bit/sec)"  ETV
vector 546  University.whttpStudents[12].wlan[0].inputHook[0]  packet/sec  ETV
vector 505  University.whttpStudents[8].wlan[0].inputHook[0]  "thruput (bit/sec)"  ETV
vector 506  University.whttpStudents[8].wlan[0].inputHook[0]  packet/sec  ETV
vector 595  University.whttpStudents[17].wlan[0].inputHook[0]  "thruput (bit/sec)"  ETV
vector 596  University.whttpStudents[17].wlan[0].inputHook[0]  packet/sec  ETV
vector 615  University.whostFTP.wlan[0].inputHook[0]  "thruput (bit/sec)"  ETV
vector 616  University.whostFTP.wlan[0].inputHook[0]  packet/sec  ETV
vector 605  University.whostVideoConf.wlan[0].inputHook[0]  "thruput (bit/sec)"  ETV
vector 606  University.whostVideoConf.wlan[0].inputHook[0]  packet/sec  ETV
vector 565  University.whttpStudents[14].wlan[0].inputHook[0]  "thruput (bit/sec)"  ETV
vector 566  University.whttpStudents[14].wlan[0].inputHook[0]  packet/sec  ETV
vector 455  University.whttpStudents[3].wlan[0].inputHook[0]  "thruput (bit/sec)"  ETV
vector 456  University.whttpStudents[3].wlan[0].inputHook[0]  packet/sec  ETV
vector 515  University.whttpStudents[9].wlan[0].inputHook[0]  "thruput (bit/sec)"  ETV
vector 516  University.whttpStudents[9].wlan[0].inputHook[0]  packet/sec  ETV
vector 485  University.whttpStudents[6].wlan[0].inputHook[0]  "thruput (bit/sec)"  ETV
vector 486  University.whttpStudents[6].wlan[0].inputHook[0]  packet/sec  ETV
vector 535  University.whttpStudents[11].wlan[0].inputHook[0]  "thruput (bit/sec)"  ETV
vector 536  University.whttpStudents[11].wlan[0].inputHook[0]  packet/sec  ETV
vector 555  University.whttpStudents[13].wlan[0].inputHook[0]  "thruput (bit/sec)"  ETV
vector 556  University.whttpStudents[13].wlan[0].inputHook[0]  packet/sec  ETV
vector 575  University.whttpStudents[15].wlan[0].inputHook[0]  "thruput (bit/sec)"  ETV
vector 576  University.whttpStudents[15].wlan[0].inputHook[0]  packet/sec  ETV
vector 585  University.whttpStudents[16].wlan[0].inputHook[0]  "thruput (bit/sec)"  ETV
vector 586  University.whttpStudents[16].wlan[0].inputHook[0]  packet/sec  ETV
vector 399  University.mainR.ppp[2].outputHook[0]  "thruput (bit/sec)"  ETV
vector 400  University.mainR.ppp[2].outputHook[0]  packet/sec  ETV
vector 417  University.Server.ppp[0].inputHook[0]  "thruput (bit/sec)"  ETV
vector 418  University.Server.ppp[0].inputHook[0]  packet/sec  ETV
vector 415  University.Server.ppp[0].outputHook[0]  "thruput (bit/sec)"  ETV
vector 416  University.Server.ppp[0].outputHook[0]  packet/sec  ETV
vector 401  University.mainR.ppp[2].inputHook[0]  "thruput (bit/sec)"  ETV
vector 402  University.mainR.ppp[2].inputHook[0]  packet/sec  ETV
vector 483  University.whttpStudents[6].wlan[0].outputHook[0]  "thruput (bit/sec)"  ETV
vector 484  University.whttpStudents[6].wlan[0].outputHook[0]  packet/sec  ETV
vector 174  University.whttpStudents[4].tcpApp[0]  numActiveSessions:vector  ETV
attr interpolationmode  sample-hold
attr source  sum(connect)
attr title  "number of active sessions, vector"
vector 172  University.whttpStudents[4].tcpApp[0]  sentPk:vector(packetBytes)  ETV
attr interpolationmode  none
attr source  sentPk
attr title  "packets sent, vector(packetBytes)"
vector 94  University.Server.tcpApp[0]  rcvdPk:vector(packetBytes)  ETV
attr interpolationmode  none
attr source  rcvdPk
attr title  "packets received, vector(packetBytes)"
vector 96  University.Server.tcpApp[0]  endToEndDelay:vector  ETV
attr interpolationmode  none
attr source  messageAge(rcvdPk)
attr title  "end-to-end delay, vector"
attr unit  s
vector 95  University.Server.tcpApp[0]  sentPk:vector(packetBytes)  ETV
attr interpolationmode  none
attr source  sentPk
attr title  "packets sent, vector(packetBytes)"
vector 463  University.whttpStudents[4].wlan[0].outputHook[0]  "thruput (bit/sec)"  ETV
vector 464  University.whttpStudents[4].wlan[0].outputHook[0]  packet/sec  ETV
vector 391  University.mainR.ppp[0].outputHook[0]  "thruput (bit/sec)"  ETV
vector 392  University.mainR.ppp[0].outputHook[0]  packet/sec  ETV
vector 389  University.remoteR.ppp[0].inputHook[0]  "thruput (bit/sec)"  ETV
vector 390  University.remoteR.ppp[0].inputHook[0]  packet/sec  ETV
vector 583  University.whttpStudents[16].wlan[0].outputHook[0]  "thruput (bit/sec)"  ETV
vector 584  University.whttpStudents[16].wlan[0].outputHook[0]  packet/sec  ETV
vector 573  University.whttpStudents[15].wlan[0].outputHook[0]  "thruput (bit/sec)"  ETV
vector 574  University.whttpStudents[15].wlan[0].outputHook[0]  packet/sec  ETV
vector 513  University.whttpStudents[9].wlan[0].outputHook[0]  "thruput (bit/sec)"  ETV
vector 514  University.whttpStudents[9].wlan[0].outputHook[0]  packet/sec  ETV
vector 553  University.whttpStudents[13].wlan[0].outputHook[0]  "thruput (bit/sec)"  ETV
vector 554  University.whttpStudents[13].wlan[0].outputHook[0]  packet/sec  ETV
vector 543  University.whttpStudents[12].wlan[0].outputHook[0]  "thruput (bit/sec)"  ETV
vector 544  University.whttpStudents[12].wlan[0].outputHook[0]  packet/sec  ETV
vector 150  University.whttpStudents[2].tcpApp[0]  numActiveSessions:vector  ETV
attr interpolationmode  sample-hold
attr source  sum(connect)
attr title  "number of active sessions, vector"
vector 148  University.whttpStudents[2].tcpApp[0]  sentPk:vector(packetBytes)  ETV
attr interpolationmode  none
attr source  sentPk
attr title  "packets sent, vector(packetBytes)"
vector 443  University.whttpStudents[2].wlan[0].outputHook[0]  "thruput (bit/sec)"  ETV
vector 444  University.whttpStudents[2].wlan[0].outputHook[0]  packet/sec  ETV
vector 171  University.whttpStudents[4].tcpApp[0]  rcvdPk:vector(packetBytes)  ETV
attr interpolationmode  none
attr source  rcvdPk
attr title  "packets received, vector(packetBytes)"
vector 173  University.whttpStudents[4].tcpApp[0]  endToEndDelay:vector  ETV
attr interpolationmode  none
attr source  messageAge(rcvdPk)
attr title  "end-to-end delay, vector"
attr unit  s
vector 147  University.whttpStudents[2].tcpApp[0]  rcvdPk:vector(packetBytes)  ETV
attr interpolationmode  none
attr source  rcvdPk
attr title  "packets received, vector(packetBytes)"
vector 149  University.whttpStudents[2].tcpApp[0]  endToEndDelay:vector  ETV
attr interpolationmode  none
attr source  messageAge(rcvdPk)
attr title  "end-to-end delay, vector"
attr unit  s
vector 330  University.whttpStudents[17].tcpApp[0]  numActiveSessions:vector  ETV
attr interpolationmode  sample-hold
attr source  sum(connect)
attr title  "number of active sessions, vector"
vector 222  University.whttpStudents[8].tcpApp[0]  numActiveSessions:vector  ETV
attr interpolationmode  sample-hold
attr source  sum(connect)
attr title  "number of active sessions, vector"
vector 186  University.whttpStudents[5].tcpApp[0]  numActiveSessions:vector  ETV
attr interpolationmode  sample-hold
attr source  sum(connect)
attr title  "number of active sessions, vector"
vector 593  University.whttpStudents[17].wlan[0].outputHook[0]  "thruput (bit/sec)"  ETV
vector 594  University.whttpStudents[17].wlan[0].outputHook[0]  packet/sec  ETV
vector 503  University.whttpStudents[8].wlan[0].outputHook[0]  "thruput (bit/sec)"  ETV
vector 504  University.whttpStudents[8].wlan[0].outputHook[0]  packet/sec  ETV
vector 473  University.whttpStudents[5].wlan[0].outputHook[0]  "thruput (bit/sec)"  ETV
vector 474  University.whttpStudents[5].wlan[0].outputHook[0]  packet/sec  ETV
vector 613  University.whostFTP.wlan[0].outputHook[0]  "thruput (bit/sec)"  ETV
vector 614  University.whostFTP.wlan[0].outputHook[0]  packet/sec  ETV
vector 533  University.whttpStudents[11].wlan[0].outputHook[0]  "thruput (bit/sec)"  ETV
vector 534  University.whttpStudents[11].wlan[0].outputHook[0]  packet/sec  ETV
vector 493  University.whttpStudents[7].wlan[0].outputHook[0]  "thruput (bit/sec)"  ETV
vector 494  University.whttpStudents[7].wlan[0].outputHook[0]  packet/sec  ETV
vector 294  University.whttpStudents[14].tcpApp[0]  numActiveSessions:vector  ETV
attr interpolationmode  sample-hold
attr source  sum(connect)
attr title  "number of active sessions, vector"
vector 162  University.whttpStudents[3].tcpApp[0]  numActiveSessions:vector  ETV
attr interpolationmode  sample-hold
attr source  sum(connect)
attr title  "number of active sessions, vector"
vector 160  University.whttpStudents[3].tcpApp[0]  sentPk:vector(packetBytes)  ETV
attr interpolationmode  none
attr source  sentPk
attr title  "packets sent, vector(packetBytes)"
vector 159  University.whttpStudents[3].tcpApp[0]  rcvdPk:vector(packetBytes)  ETV
attr interpolationmode  none
attr source  rcvdPk
attr title  "packets received, vector(packetBytes)"
vector 161  University.whttpStudents[3].tcpApp[0]  endToEndDelay:vector  ETV
attr interpolationmode  none
attr source  messageAge(rcvdPk)
attr title  "end-to-end delay, vector"
attr unit  s
vector 453  University.whttpStudents[3].wlan[0].outputHook[0]  "thruput (bit/sec)"  ETV
vector 454  University.whttpStudents[3].wlan[0].outputHook[0]  packet/sec  ETV
vector 563  University.whttpStudents[14].wlan[0].outputHook[0]  "thruput (bit/sec)"  ETV
vector 564  University.whttpStudents[14].wlan[0].outputHook[0]  packet/sec  ETV
vector 246  University.whttpStudents[10].tcpApp[0]  numActiveSessions:vector  ETV
attr interpolationmode  sample-hold
attr source  sum(connect)
attr title  "number of active sessions, vector"
vector 523  University.whttpStudents[10].wlan[0].outputHook[0]  "thruput (bit/sec)"  ETV
vector 524  University.whttpStudents[10].wlan[0].outputHook[0]  packet/sec  ETV
vector 138  University.whttpStudents[1].tcpApp[0]  numActiveSessions:vector  ETV
attr interpolationmode  sample-hold
attr source  sum(connect)
attr title  "number of active sessions, vector"
vector 136  University.whttpStudents[1].tcpApp[0]  sentPk:vector(packetBytes)  ETV
attr interpolationmode  none
attr source  sentPk
attr title  "packets sent, vector(packetBytes)"
vector 126  University.whttpStudents[0].tcpApp[0]  numActiveSessions:vector  ETV
attr interpolationmode  sample-hold
attr source  sum(connect)
attr title  "number of active sessions, vector"
vector 124  University.whttpStudents[0].tcpApp[0]  sentPk:vector(packetBytes)  ETV
attr interpolationmode  none
attr source  sentPk
attr title  "packets sent, vector(packetBytes)"
vector 123  University.whttpStudents[0].tcpApp[0]  rcvdPk:vector(packetBytes)  ETV
attr interpolationmode  none
attr source  rcvdPk
attr title  "packets received, vector(packetBytes)"
vector 125  University.whttpStudents[0].tcpApp[0]  endToEndDelay:vector  ETV
attr interpolationmode  none
attr source  messageAge(rcvdPk)
attr title  "end-to-end delay, vector"
attr unit  s
vector 135  University.whttpStudents[1].tcpApp[0]  rcvdPk:vector(packetBytes)  ETV
attr interpolationmode  none
attr source  rcvdPk
attr title  "packets received, vector(packetBytes)"
vector 137  University.whttpStudents[1].tcpApp[0]  endToEndDelay:vector  ETV
attr interpolationmode  none
attr source  messageAge(rcvdPk)
attr title  "end-to-end delay, vector"
attr unit  s
vector 433  University.whttpStudents[1].wlan[0].outputHook[0]  "thruput (bit/sec)"  ETV
vector 434  University.whttpStudents[1].wlan[0].outputHook[0]  packet/sec  ETV
vector 423  University.whttpStudents[0].wlan[0].outputHook[0]  "thruput (bit/sec)"  ETV
vector 424  University.whttpStudents[0].wlan[0].outputHook[0]  packet/sec  ETV
vector 358  University.whostFTP.tcpApp[0]  numActiveSessions:vector  ETV
attr interpolationmode  sample-hold
attr source  sum(connect)
attr title  "number of active sessions, vector"
vector 210  University.whttpStudents[7].tcpApp[0]  numActiveSessions:vector  ETV
attr interpolationmode  sample-hold
attr source  sum(connect)
attr title  "number of active sessions, vector"
vector 282  University.whttpStudents[13].tcpApp[0]  numActiveSessions:vector  ETV
attr interpolationmode  sample-hold
attr source  sum(connect)
attr title  "number of active sessions, vector"
vector 234  University.whttpStudents[9].tcpApp[0]  numActiveSessions:vector  ETV
attr interpolationmode  sample-hold
attr source  sum(connect)
attr title  "number of active sessions, vector"
vector 270  University.whttpStudents[12].tcpApp[0]  numActiveSessions:vector  ETV
attr interpolationmode  sample-hold
attr source  sum(connect)
attr title  "number of active sessions, vector"
vector 306  University.whttpStudents[15].tcpApp[0]  numActiveSessions:vector  ETV
attr interpolationmode  sample-hold
attr source  sum(connect)
attr title  "number of active sessions, vector"
vector 258  University.whttpStudents[11].tcpApp[0]  numActiveSessions:vector  ETV
attr interpolationmode  sample-hold
attr source  sum(connect)
attr title  "number of active sessions, vector"
75	17326 4386589 269540 338368757 5.020364576191 4957.100364576191 123802 1400 1400 173322800 242651920000
76	4403915 4388739 270094 338368539 5.031196751827 4957.071196751827 123802 1400 1400 173322800 242651920000
77	8792654 5622403 269540 338368757 5.020364576191 4957.100364576191 123802 0.016345617235 0.135036383204 2058.1073317816 34.534966756708
94	14415057 44065 299677 338078265 9.118746307893 4951.165531302644 1362 1 1 1362 1362
95	14459122 51099 299677 338078265 9.118746307893 4951.165531302644 1362 35 4626953 1089065728 1.682366100196e+15
96	14510221 61252 299677 338078265 9.118746307893 4951.165531302644 1362 0.013190995611 0.023100409512 18.127241997365 0.24151179833221
123	14571473 10348 3261460 338359261 57.857283486416 4955.769212068605 268 2538 4626953 227822679 3.8670944641141e+14
124	14581821 8968 3114774 338077543 57.436220849189 4951.152286307033 268 1 1 268 268
125	14590789 12431 3261460 338359261 57.857283486416 4955.769212068605 268 0.064179829701 22.692867248741 817.27967938975 5018.7909796847
126	14603220 17933 3110336 338359261 57.403442122363 4955.769212068605 536 0 1 268 268
135	14621153 10672 3265060 337999946 57.985092728958 4944.264814419563 276 2106 4546760 244153937 3.9442654542313e+14
136	14631825 9226 3106031 337494134 57.276337583934 4939.436220851632 276 1 1 276 276
137	14641051 12791 3265060 337999946 57.985092728958 4944.264814419563 276 0.063934242432 11.543145534634 891.27149768929 5153.895549225
138	14653842 18475 3105034 338368758 57.243546055816 4957.101675011044 553 0 1 277 277
147	14672317 9582 1251643 337748973 15.499770554509 4940.917280941761 249 1498 4533511 183522002 2.6161597380633e+14
148	14681899 8301 726699 337731996 14.095748767521 4940.742388267547 249 1 1 249 249
149	14690200 11515 1251643 337748973 15.499770554509 4940.917280941761 249 0.063200098203 15.993032286083 711.55860606716 3992.7282550067
150	14701715 16603 676314 337748973 13.963007641127 4940.917280941761 498 0 1 249 249
159	14718318 10837 1628935 337986507 24.675912317207 4943.600180971985 282 1919 4435188 221804451 3.4729000345442e+14
160	14729155 9364 1521501 337550850 24.240676687519 4939.739719773292 282 1 1 282 282
161	14738519 13019 1628935 337986507 24.675912317207 4943.600180971985 282 0.063621211912 14.685026940155 822.82289433314 4874.9758131673
162	14751538 18759 1520698 337986507 24.210323962465 4943.600180971985 564 0 1 282 282
171	14770297 11072 1188045 338044334 15.328947296029 4946.382936759978 287 35 4202096 211762659 2.9232413110067e+14
172	14781369 9585 299149 338013849 9.105519301479 4946.147118794464 287 1 1 287 287
173	14790954 13296 1188045 338044334 15.328947296029 4946.382936759978 287 0.031508408058 23.996191286949 808.10607871512 4961.3912071079
174	14804250 19185 298662 338044334 9.075166598849 4946.382936759978 574 0 1 287 287
186	14823435 1915 1264497 334429481 17.055463413041 4906.760574358409 56 1 56 1596 60116
198	14825350 1873 276693 335185277 6.025964414007 4916.203380267374 55 1 55 1540 56980
210	14827223 1918 4887368 336600054 79.297285922715 4930.266426084744 56 1 56 1596 60116
222	14829141 1878 1261694 335442195 16.735641281699 4922.47523877704 55 1 55 1540 56980
234	14831019 1882 6062085 335419387 88.717427422299 4920.599891932911 55 1 55 1540 56980
246	14832901 1878 2474028 332357135 39.7881375716 4887.313186143841 55 1 55 1540 56980
258	14834779 1811 8759381 335430027 120.893181085331 4921.677593853964 53 1 53 1431 51039
270	14836590 1883 6518375 338006663 91.948165718768 4945.140557324329 55 1 55 1540 56980
282	14838473 1880 5845082 332682167 87.328945045749 4893.449063264593 55 1 55 1540 56980
294	14840353 1879 1506177 332688370 23.464351761827 4893.651064599207 55 1 55 1540 56980
306	14842232 1848 6581933 335790758 98.049325737832 4926.023653323364 54 1 54 1485 53955
318	14844080 1905 285832 338066766 7.28345029836 4949.621104445668 56 1 56 1596 60116
330	14845985 1810 1259989 330387094 16.585153709673 4863.293368809069 53 1 53 1431 51039
340	14847795 4512576 269260 338368559 5.004018958956 4957.084018958956 123803 1400 1400 173324200 242653880000
358	19360371 1408 4341202 338069322 75 4950 66 1 66 2211 98021
379	19361779 142288 285934 338349657 6.02603625588 4954.229105905338 3011 44.347308143628 11567778.432184 8304355321.7123 4.6877531674169e+16
380	19504067 142271 285934 338349657 6.02603625588 4954.229105905338 3011 0.19797905421263 964.69330973192 697163.09935166 329006718.09302
381	19646338 206863 276612 338365389 5.004407909525 4955.564407909525 4931 275217.74203705 585899.55485414 1651019622.2184 5.7526833081753e+14
382	19853201 195607 276612 338365389 5.004407909525 4955.564407909525 4931 25 939.57916719173 880719.64276054 372317793.37156
387	20048808 206865 276614 338365391 5.004407909525 4955.564407909525 4931 275217.74203705 585899.55485414 1650968686.7482 5.7523051819678e+14
388	20255673 195610 276614 338365391 5.004407909525 4955.564407909525 4931 25 939.57916719173 880492.25226856 372185359.15819
389	20451283 141621 514847 338349655 9.105443315122 4954.229105905338 2996 94.736828840064 11567778.432184 8298543415.0635 4.6866072400139e+16
390	20592904 141586 514847 338349655 9.105443315122 4954.229105905338 2996 0.2960525901252 964.69330973192 696478.75523858 328796034.83076
391	20734490 141407 514643 338349580 9.095406648456 4954.218101238672 2991 57.487779117737 13533507.510675 9195175990.9833 5.921234408826e+16
392	20875897 141396 514643 338349580 9.095406648456 4954.218101238672 2991 0.17964930974293 1134.1033026528 771294.16568227 415073366.88309
393	21017293 206812 276682 338365459 5.015364576191 4955.575364576191 4931 275454.72795875 586760.52017235 1650956795.1185 5.7520578525838e+14
394	21224105 195510 276682 338365459 5.015364576191 4955.575364576191 4931 25 939.57916719173 880454.73607957 372109585.40763
395	21419615 190405 277485 338368330 5.036196751827 4956.036196751827 4952 273952 319648 1469742176 4.3621908887245e+14
396	21610020 170597 277485 338368330 5.036196751827 4956.036196751827 4952 48 52 247599 12379923
397	21780617 190405 277482 338368327 5.036196751827 4956.036196751827 4952 285600 285600 1414291200 4.0392156672e+14
398	21971022 170597 277482 338368327 5.036196751827 4956.036196751827 4952 25 25 123800 3095000
399	22141619 178014 286720 338349339 6.037670986292 4954.207858162088 3772 149.83916821821 294597.51660602 233558840.94177 33670859085893
400	22319633 178136 286720 338349339 6.037670986292 4954.207858162088 3772 0.3344624290585 920.01787921191 726640.1272093 327491982.65098
401	22497769 177296 286746 338349578 6.047798542876 4954.218101238672 3754 86.087609043522 13078348.786964 9430080478.7656 5.8736737809428e+16
402	22675065 177501 286746 338349578 6.047798542876 4954.218101238672 3754 0.24456707114637 1095.6484004527 796930.02405983 414148255.12538
411	22852566 190405 277390 338368235 5.031196751827 4956.031196751827 4952 285600 285600 1414291200 4.0392156672e+14
412	23042971 170597 277390 338368235 5.031196751827 4956.031196751827 4952 25 25 123800 3095000
413	23213568 190404 276490 338368029 5.001196751827 4956.001196751827 4952 285376 308224 1469742176 4.3621700074803e+14
414	23403972 170596 276490 338368029 5.001196751827 4956.001196751827 4952 49 51 247599 12379907
415	23574568 177252 286736 338349444 6.040056693636 4954.210243229432 3753 86.087609043522 17699744.508735 9493416656.6747 5.9831062709807e+16
416	23751820 177458 286736 338349444 6.040056693636 4954.210243229432 3753 0.24456707114637 1481.0454657012 802214.46225802 421858311.86412
417	23929278 178144 286732 338349440 6.040056693636 4954.210243229432 3772 149.83920029218 294597.51660602 233558865.27707 33670866879745
418	24107422 178265 286732 338349440 6.040056693636 4954.210243229432 3772 0.33446250065219 920.01787921191 726640.2029384 327492058.28674
423	24285687 43046 3763901 338349016 57.403442122363 4954.197437005999 910 9.9076626999203 289462.22498116 41123916.162333 5562251289683.4
424	24328733 43163 3763901 338349016 57.403442122363 4954.197437005999 910 0.030961445937251 904.56945306612 128478.56348906 54293558.354118
425	24371896 49247 286083 338349706 6.027124458636 4954.229514048093 1041 3.7674850536112 10854833.436793 1537391229.7511 7.6411230360042e+15
426	24421143 49470 286083 338349706 6.027124458636 4954.229514048093 1041 0.016819129703621 904.56945306612 128804.11654878 53446603.833303
433	24470613 46422 3339194 338368761 57.243546055816 4943.460629244888 982 6.3249786979399 288881.06594024 43860070.585245 5784341408438.8
434	24517035 46540 3339194 338368761 57.243546055816 4943.460629244888 982 0.019765558431062 902.75333106324 137024.60713656 56456845.640556
435	24563575 52064 286095 338077229 6.027124461079 4946.146623760592 1101 3.2563794943639 10849177.832568 1647843798.6683 8.0425557763886e+15
436	24615639 52287 286095 338077229 6.027124461079 4946.146623760592 1101 0.014537408456982 904.60793176946 138068.12350601 56289197.403794
443	24667926 37331 1051036 337730647 13.963007641127 4937.215460778073 791 16.650295520256 285560.37374814 31845251.200033 3909243996154.6
444	24705257 37411 1051036 337730647 13.963007641127 4937.215460778073 791 0.052032173500801 892.37616796295 99484.936131819 38152403.074655
445	24742668 43605 286089 338077223 6.027124458942 4946.146623758455 924 3.2505145810895 10707354.825908 1211852026.5612 5.5568944331631e+15
446	24786273 43823 286089 338077223 6.027124458942 4946.146623758455 924 0.014511225808435 892.37616796295 101613.95369112 38941544.218426
453	24830096 42482 1654025 337974095 24.210323962465 4942.565496808212 901 10.045660454158 287493.92379462 37996707.434551 4870877834032.3
454	24872578 42565 1654025 337974095 24.210323962465 4942.565496808212 901 0.031392688919244 898.41851185819 118705.4956945 47541039.661643
455	24915143 48606 286143 338077277 6.027124473449 4946.146623772962 1031 4.489946843085 10767652.513345 1458170319.749 6.9084170163467e+15
456	24963749 48791 286143 338077277 6.027124473449 4946.146623772962 1031 0.020044405549486 897.85428686685 122233.48423623 48358501.625045
463	25012540 42718 513915 338012937 9.075166598849 4932.769699646112 906 27.911146092574 289040.35873679 36843859.980781 4590456761033.8
464	25055258 42820 513915 338012937 9.075166598849 4932.769699646112 906 0.084506065159177 903.25112105246 115103.56716413 44802056.257371
465	25098078 48297 286101 338077235 6.027124462237 4946.14662376175 1025 5.9606300932506 10812207.715761 1385987715.7596 6.3745771018895e+15
466	25146375 48525 286101 338077235 6.027124462237 4946.14662376175 1025 0.02660995577344 901.69299690538 116182.06248812 44655054.983007
473	25194900 10377 1284752 338249512 17.055463413041 4927.760574358409 279 4.5459314693191 202.66666666667 14104.987461836 1273001.8786225
474	25205277 13656 1284752 338249512 17.055463413041 4927.760574358409 279 0.011838363201352 0.66666666666667 37.015205331763 8.9651650040559
475	25218933 9731 286063 338077189 6.027124447732 4946.146623747245 207 2.3844083914104 427.25166674658 7333.1010901318 906268.03143823
476	25228664 10078 286063 338077189 6.027124447732 4946.146623747245 207 0.010644680318796 1.9073735122615 32.737058438088 18.061783152069
483	25238742 10140 298118 337471985 6.025964414007 4925.203380267374 273 3.4161538066904 202.66666666667 13853.243158706 1251541.2937686
484	25248882 13328 298118 337471985 6.025964414007 4925.203380267374 273 0.0088962338715896 0.66666666666667 36.382978828582 8.8231142501695
485	25262210 9681 286155 338077289 6.027235477753 4946.146623777266 206 2.3844083914104 427.25166674658 7298.9979528389 904955.27186538
486	25271891 10024 286155 338077289 6.027235477753 4946.146623777266 206 0.010644680318796 1.9073735122615 32.584812289459 18.035620054715
493	25281915 10471 1297834 338081789 10.023160340613 4939.266426084744 281 4.9364164121599 202.66666666667 14158.47865911 1274431.2330719
494	25292386 13759 1297834 338081789 10.023160340613 4939.266426084744 281 0.012855251073333 0.66666666666667 37.160653336622 8.9757851247731
495	25306145 9690 286071 338077201 6.027124456561 4946.146623756074 206 2.3844083914104 427.25166674658 7298.9884172341 904952.34685028
496	25315835 10034 286071 338077201 6.027124456561 4946.146623756074 206 0.010644680318796 1.9073735122615 32.584769719795 18.035561759612
503	25325869 10144 1282439 337942041 16.735641281699 4931.47523877704 273 3.766842393315 202.66666666667 13839.482506381 1251047.1049207
504	25336013 13350 1282439 337942041 16.735641281699 4931.47523877704 273 0.0098094853992577 0.66666666666667 36.330011114872 8.8172170696395