file 31415664 1471644842                                        
version 2
run _18to20off-8-20160819-23:56:05-19049
attr configname _18to20off
attr datetime 20160819-23:56:05
attr experiment _18to20off
attr inifile omnetpp.ini
attr iterationvars $0=18
attr iterationvars2 "$0=18, $repetition=8"
attr measurement $0=18
attr network University
attr processid 19049
attr repetition 8
attr replication #8
attr resultdir /utmnt/ut/si/sinp1070
attr runnumber 8
attr seedset 8

vector 340  University.whostVideoConf.udpApp[0]  sentPk:vector(packetBytes)  ETV
attr interpolationmode  none
attr source  sentPk
attr title  "packets sent, vector(packetBytes)"
vector 75  University.profLaptop.udpApp[0]  rcvdPk:vector(packetBytes)  ETV
attr interpolationmode  none
attr source  rcvdPk
attr title  "packets received, vector(packetBytes)"
vector 77  University.profLaptop.udpApp[0]  rcvdPkLifetime:vector  ETV
attr interpolationmode  none
attr source  messageAge(rcvdPk)
attr title  "received packet lifetime, vector"
attr unit  s
vector 76  University.profLaptop.udpApp[0]  sentPk:vector(packetBytes)  ETV
attr interpolationmode  none
attr source  sentPk
attr title  "packets sent, vector(packetBytes)"
vector 234  University.whttpStudents[9].tcpApp[0]  numActiveSessions:vector  ETV
attr interpolationmode  sample-hold
attr source  sum(connect)
attr title  "number of active sessions, vector"
vector 270  University.whttpStudents[12].tcpApp[0]  numActiveSessions:vector  ETV
attr interpolationmode  sample-hold
attr source  sum(connect)
attr title  "number of active sessions, vector"
vector 397  University.mainR.ppp[1].inputHook[0]  "thruput (bit/sec)"  ETV
vector 398  University.mainR.ppp[1].inputHook[0]  packet/sec  ETV
vector 395  University.mainR.ppp[1].outputHook[0]  "thruput (bit/sec)"  ETV
vector 396  University.mainR.ppp[1].outputHook[0]  packet/sec  ETV
vector 603  University.whostVideoConf.wlan[0].outputHook[0]  "thruput (bit/sec)"  ETV
vector 604  University.whostVideoConf.wlan[0].outputHook[0]  packet/sec  ETV
vector 413  University.profLaptop.ppp[0].inputHook[0]  "thruput (bit/sec)"  ETV
vector 414  University.profLaptop.ppp[0].inputHook[0]  packet/sec  ETV
vector 625  University.accessPoint.wlan[0].inputHook[0]  "thruput (bit/sec)"  ETV
vector 626  University.accessPoint.wlan[0].inputHook[0]  packet/sec  ETV
vector 633  University.accessPoint.eth[0].outputHook[0]  "thruput (bit/sec)"  ETV
vector 634  University.accessPoint.eth[0].outputHook[0]  packet/sec  ETV
vector 381  University.remoteR.eth[0].inputHook[0]  "thruput (bit/sec)"  ETV
vector 382  University.remoteR.eth[0].inputHook[0]  packet/sec  ETV
vector 387  University.remoteR.ppp[0].outputHook[0]  "thruput (bit/sec)"  ETV
vector 388  University.remoteR.ppp[0].outputHook[0]  packet/sec  ETV
vector 393  University.mainR.ppp[0].inputHook[0]  "thruput (bit/sec)"  ETV
vector 394  University.mainR.ppp[0].inputHook[0]  packet/sec  ETV
vector 411  University.profLaptop.ppp[0].outputHook[0]  "thruput (bit/sec)"  ETV
vector 412  University.profLaptop.ppp[0].outputHook[0]  packet/sec  ETV
vector 399  University.mainR.ppp[2].outputHook[0]  "thruput (bit/sec)"  ETV
vector 400  University.mainR.ppp[2].outputHook[0]  packet/sec  ETV
vector 391  University.mainR.ppp[0].outputHook[0]  "thruput (bit/sec)"  ETV
vector 392  University.mainR.ppp[0].outputHook[0]  packet/sec  ETV
vector 389  University.remoteR.ppp[0].inputHook[0]  "thruput (bit/sec)"  ETV
vector 390  University.remoteR.ppp[0].inputHook[0]  packet/sec  ETV
vector 417  University.Server.ppp[0].inputHook[0]  "thruput (bit/sec)"  ETV
vector 418  University.Server.ppp[0].inputHook[0]  packet/sec  ETV
vector 330  University.whttpStudents[17].tcpApp[0]  numActiveSessions:vector  ETV
attr interpolationmode  sample-hold
attr source  sum(connect)
attr title  "number of active sessions, vector"
vector 465  University.whttpStudents[4].wlan[0].inputHook[0]  "thruput (bit/sec)"  ETV
vector 466  University.whttpStudents[4].wlan[0].inputHook[0]  packet/sec  ETV
vector 585  University.whttpStudents[16].wlan[0].inputHook[0]  "thruput (bit/sec)"  ETV
vector 586  University.whttpStudents[16].wlan[0].inputHook[0]  packet/sec  ETV
vector 515  University.whttpStudents[9].wlan[0].inputHook[0]  "thruput (bit/sec)"  ETV
vector 516  University.whttpStudents[9].wlan[0].inputHook[0]  packet/sec  ETV
vector 565  University.whttpStudents[14].wlan[0].inputHook[0]  "thruput (bit/sec)"  ETV
vector 566  University.whttpStudents[14].wlan[0].inputHook[0]  packet/sec  ETV
vector 455  University.whttpStudents[3].wlan[0].inputHook[0]  "thruput (bit/sec)"  ETV
vector 456  University.whttpStudents[3].wlan[0].inputHook[0]  packet/sec  ETV
vector 495  University.whttpStudents[7].wlan[0].inputHook[0]  "thruput (bit/sec)"  ETV
vector 496  University.whttpStudents[7].wlan[0].inputHook[0]  packet/sec  ETV
vector 505  University.whttpStudents[8].wlan[0].inputHook[0]  "thruput (bit/sec)"  ETV
vector 506  University.whttpStudents[8].wlan[0].inputHook[0]  packet/sec  ETV
vector 485  University.whttpStudents[6].wlan[0].inputHook[0]  "thruput (bit/sec)"  ETV
vector 486  University.whttpStudents[6].wlan[0].inputHook[0]  packet/sec  ETV
vector 475  University.whttpStudents[5].wlan[0].inputHook[0]  "thruput (bit/sec)"  ETV
vector 476  University.whttpStudents[5].wlan[0].inputHook[0]  packet/sec  ETV
vector 575  University.whttpStudents[15].wlan[0].inputHook[0]  "thruput (bit/sec)"  ETV
vector 576  University.whttpStudents[15].wlan[0].inputHook[0]  packet/sec  ETV
vector 425  University.whttpStudents[0].wlan[0].inputHook[0]  "thruput (bit/sec)"  ETV
vector 426  University.whttpStudents[0].wlan[0].inputHook[0]  packet/sec  ETV
vector 525  University.whttpStudents[10].wlan[0].inputHook[0]  "thruput (bit/sec)"  ETV
vector 526  University.whttpStudents[10].wlan[0].inputHook[0]  packet/sec  ETV
vector 535  University.whttpStudents[11].wlan[0].inputHook[0]  "thruput (bit/sec)"  ETV
vector 536  University.whttpStudents[11].wlan[0].inputHook[0]  packet/sec  ETV
vector 545  University.whttpStudents[12].wlan[0].inputHook[0]  "thruput (bit/sec)"  ETV
vector 546  University.whttpStudents[12].wlan[0].inputHook[0]  packet/sec  ETV
vector 445  University.whttpStudents[2].wlan[0].inputHook[0]  "thruput (bit/sec)"  ETV
vector 446  University.whttpStudents[2].wlan[0].inputHook[0]  packet/sec  ETV
vector 615  University.whostFTP.wlan[0].inputHook[0]  "thruput (bit/sec)"  ETV
vector 616  University.whostFTP.wlan[0].inputHook[0]  packet/sec  ETV
vector 555  University.whttpStudents[13].wlan[0].inputHook[0]  "thruput (bit/sec)"  ETV
vector 556  University.whttpStudents[13].wlan[0].inputHook[0]  packet/sec  ETV
vector 605  University.whostVideoConf.wlan[0].inputHook[0]  "thruput (bit/sec)"  ETV
vector 606  University.whostVideoConf.wlan[0].inputHook[0]  packet/sec  ETV
vector 595  University.whttpStudents[17].wlan[0].inputHook[0]  "thruput (bit/sec)"  ETV
vector 596  University.whttpStudents[17].wlan[0].inputHook[0]  packet/sec  ETV
vector 415  University.Server.ppp[0].outputHook[0]  "thruput (bit/sec)"  ETV
vector 416  University.Server.ppp[0].outputHook[0]  packet/sec  ETV
vector 401  University.mainR.ppp[2].inputHook[0]  "thruput (bit/sec)"  ETV
vector 402  University.mainR.ppp[2].inputHook[0]  packet/sec  ETV
vector 379  University.remoteR.eth[0].outputHook[0]  "thruput (bit/sec)"  ETV
vector 380  University.remoteR.eth[0].outputHook[0]  packet/sec  ETV
vector 635  University.accessPoint.eth[0].inputHook[0]  "thruput (bit/sec)"  ETV
vector 636  University.accessPoint.eth[0].inputHook[0]  packet/sec  ETV
vector 623  University.accessPoint.wlan[0].outputHook[0]  "thruput (bit/sec)"  ETV
vector 624  University.accessPoint.wlan[0].outputHook[0]  packet/sec  ETV
vector 435  University.whttpStudents[1].wlan[0].inputHook[0]  "thruput (bit/sec)"  ETV
vector 436  University.whttpStudents[1].wlan[0].inputHook[0]  packet/sec  ETV
vector 433  University.whttpStudents[1].wlan[0].outputHook[0]  "thruput (bit/sec)"  ETV
vector 434  University.whttpStudents[1].wlan[0].outputHook[0]  packet/sec  ETV
vector 126  University.whttpStudents[0].tcpApp[0]  numActiveSessions:vector  ETV
attr interpolationmode  sample-hold
attr source  sum(connect)
attr title  "number of active sessions, vector"
vector 124  University.whttpStudents[0].tcpApp[0]  sentPk:vector(packetBytes)  ETV
attr interpolationmode  none
attr source  sentPk
attr title  "packets sent, vector(packetBytes)"
vector 94  University.Server.tcpApp[0]  rcvdPk:vector(packetBytes)  ETV
attr interpolationmode  none
attr source  rcvdPk
attr title  "packets received, vector(packetBytes)"
vector 96  University.Server.tcpApp[0]  endToEndDelay:vector  ETV
attr interpolationmode  none
attr source  messageAge(rcvdPk)
attr title  "end-to-end delay, vector"
attr unit  s
vector 95  University.Server.tcpApp[0]  sentPk:vector(packetBytes)  ETV
attr interpolationmode  none
attr source  sentPk
attr title  "packets sent, vector(packetBytes)"
vector 162  University.whttpStudents[3].tcpApp[0]  numActiveSessions:vector  ETV
attr interpolationmode  sample-hold
attr source  sum(connect)
attr title  "number of active sessions, vector"
vector 160  University.whttpStudents[3].tcpApp[0]  sentPk:vector(packetBytes)  ETV
attr interpolationmode  none
attr source  sentPk
attr title  "packets sent, vector(packetBytes)"
vector 123  University.whttpStudents[0].tcpApp[0]  rcvdPk:vector(packetBytes)  ETV
attr interpolationmode  none
attr source  rcvdPk
attr title  "packets received, vector(packetBytes)"
vector 125  University.whttpStudents[0].tcpApp[0]  endToEndDelay:vector  ETV
attr interpolationmode  none
attr source  messageAge(rcvdPk)
attr title  "end-to-end delay, vector"
attr unit  s
vector 513  University.whttpStudents[9].wlan[0].outputHook[0]  "thruput (bit/sec)"  ETV
vector 514  University.whttpStudents[9].wlan[0].outputHook[0]  packet/sec  ETV
vector 423  University.whttpStudents[0].wlan[0].outputHook[0]  "thruput (bit/sec)"  ETV
vector 424  University.whttpStudents[0].wlan[0].outputHook[0]  packet/sec  ETV
vector 543  University.whttpStudents[12].wlan[0].outputHook[0]  "thruput (bit/sec)"  ETV
vector 544  University.whttpStudents[12].wlan[0].outputHook[0]  packet/sec  ETV
vector 453  University.whttpStudents[3].wlan[0].outputHook[0]  "thruput (bit/sec)"  ETV
vector 454  University.whttpStudents[3].wlan[0].outputHook[0]  packet/sec  ETV
vector 159  University.whttpStudents[3].tcpApp[0]  rcvdPk:vector(packetBytes)  ETV
attr interpolationmode  none
attr source  rcvdPk
attr title  "packets received, vector(packetBytes)"
vector 161  University.whttpStudents[3].tcpApp[0]  endToEndDelay:vector  ETV
attr interpolationmode  none
attr source  messageAge(rcvdPk)
attr title  "end-to-end delay, vector"
attr unit  s
vector 593  University.whttpStudents[17].wlan[0].outputHook[0]  "thruput (bit/sec)"  ETV
vector 594  University.whttpStudents[17].wlan[0].outputHook[0]  packet/sec  ETV
vector 135  University.whttpStudents[1].tcpApp[0]  rcvdPk:vector(packetBytes)  ETV
attr interpolationmode  none
attr source  rcvdPk
attr title  "packets received, vector(packetBytes)"
vector 137  University.whttpStudents[1].tcpApp[0]  endToEndDelay:vector  ETV
attr interpolationmode  none
attr source  messageAge(rcvdPk)
attr title  "end-to-end delay, vector"
attr unit  s
vector 138  University.whttpStudents[1].tcpApp[0]  numActiveSessions:vector  ETV
attr interpolationmode  sample-hold
attr source  sum(connect)
attr title  "number of active sessions, vector"
vector 553  University.whttpStudents[13].wlan[0].outputHook[0]  "thruput (bit/sec)"  ETV
vector 554  University.whttpStudents[13].wlan[0].outputHook[0]  packet/sec  ETV
vector 563  University.whttpStudents[14].wlan[0].outputHook[0]  "thruput (bit/sec)"  ETV
vector 564  University.whttpStudents[14].wlan[0].outputHook[0]  packet/sec  ETV
vector 186  University.whttpStudents[5].tcpApp[0]  numActiveSessions:vector  ETV
attr interpolationmode  sample-hold
attr source  sum(connect)
attr title  "number of active sessions, vector"
vector 533  University.whttpStudents[11].wlan[0].outputHook[0]  "thruput (bit/sec)"  ETV
vector 534  University.whttpStudents[11].wlan[0].outputHook[0]  packet/sec  ETV
vector 573  University.whttpStudents[15].wlan[0].outputHook[0]  "thruput (bit/sec)"  ETV
vector 574  University.whttpStudents[15].wlan[0].outputHook[0]  packet/sec  ETV
vector 150  University.whttpStudents[2].tcpApp[0]  numActiveSessions:vector  ETV
attr interpolationmode  sample-hold
attr source  sum(connect)
attr title  "number of active sessions, vector"
vector 148  University.whttpStudents[2].tcpApp[0]  sentPk:vector(packetBytes)  ETV
attr interpolationmode  none
attr source  sentPk
attr title  "packets sent, vector(packetBytes)"
vector 473  University.whttpStudents[5].wlan[0].outputHook[0]  "thruput (bit/sec)"  ETV
vector 474  University.whttpStudents[5].wlan[0].outputHook[0]  packet/sec  ETV
vector 443  University.whttpStudents[2].wlan[0].outputHook[0]  "thruput (bit/sec)"  ETV
vector 444  University.whttpStudents[2].wlan[0].outputHook[0]  packet/sec  ETV
vector 147  University.whttpStudents[2].tcpApp[0]  rcvdPk:vector(packetBytes)  ETV
attr interpolationmode  none
attr source  rcvdPk
attr title  "packets received, vector(packetBytes)"
vector 149  University.whttpStudents[2].tcpApp[0]  endToEndDelay:vector  ETV
attr interpolationmode  none
attr source  messageAge(rcvdPk)
attr title  "end-to-end delay, vector"
attr unit  s
vector 198  University.whttpStudents[6].tcpApp[0]  numActiveSessions:vector  ETV
attr interpolationmode  sample-hold
attr source  sum(connect)
attr title  "number of active sessions, vector"
vector 210  University.whttpStudents[7].tcpApp[0]  numActiveSessions:vector  ETV
attr interpolationmode  sample-hold
attr source  sum(connect)
attr title  "number of active sessions, vector"
vector 613  University.whostFTP.wlan[0].outputHook[0]  "thruput (bit/sec)"  ETV
vector 614  University.whostFTP.wlan[0].outputHook[0]  packet/sec  ETV
vector 483  University.whttpStudents[6].wlan[0].outputHook[0]  "thruput (bit/sec)"  ETV
vector 484  University.whttpStudents[6].wlan[0].outputHook[0]  packet/sec  ETV
vector 503  University.whttpStudents[8].wlan[0].outputHook[0]  "thruput (bit/sec)"  ETV
vector 504  University.whttpStudents[8].wlan[0].outputHook[0]  packet/sec  ETV
vector 493  University.whttpStudents[7].wlan[0].outputHook[0]  "thruput (bit/sec)"  ETV
vector 494  University.whttpStudents[7].wlan[0].outputHook[0]  packet/sec  ETV
vector 136  University.whttpStudents[1].tcpApp[0]  sentPk:vector(packetBytes)  ETV
attr interpolationmode  none
attr source  sentPk
attr title  "packets sent, vector(packetBytes)"
vector 174  University.whttpStudents[4].tcpApp[0]  numActiveSessions:vector  ETV
attr interpolationmode  sample-hold
attr source  sum(connect)
attr title  "number of active sessions, vector"
vector 172  University.whttpStudents[4].tcpApp[0]  sentPk:vector(packetBytes)  ETV
attr interpolationmode  none
attr source  sentPk
attr title  "packets sent, vector(packetBytes)"
vector 246  University.whttpStudents[10].tcpApp[0]  numActiveSessions:vector  ETV
attr interpolationmode  sample-hold
attr source  sum(connect)
attr title  "number of active sessions, vector"
vector 171  University.whttpStudents[4].tcpApp[0]  rcvdPk:vector(packetBytes)  ETV
attr interpolationmode  none
attr source  rcvdPk
attr title  "packets received, vector(packetBytes)"
vector 173  University.whttpStudents[4].tcpApp[0]  endToEndDelay:vector  ETV
attr interpolationmode  none
attr source  messageAge(rcvdPk)
attr title  "end-to-end delay, vector"
attr unit  s
vector 523  University.whttpStudents[10].wlan[0].outputHook[0]  "thruput (bit/sec)"  ETV
vector 524  University.whttpStudents[10].wlan[0].outputHook[0]  packet/sec  ETV
vector 463  University.whttpStudents[4].wlan[0].outputHook[0]  "thruput (bit/sec)"  ETV
vector 464  University.whttpStudents[4].wlan[0].outputHook[0]  packet/sec  ETV
vector 318  University.whttpStudents[16].tcpApp[0]  numActiveSessions:vector  ETV
attr interpolationmode  sample-hold
attr source  sum(connect)
attr title  "number of active sessions, vector"
vector 583  University.whttpStudents[16].wlan[0].outputHook[0]  "thruput (bit/sec)"  ETV
vector 584  University.whttpStudents[16].wlan[0].outputHook[0]  packet/sec  ETV
vector 358  University.whostFTP.tcpApp[0]  numActiveSessions:vector  ETV
attr interpolationmode  sample-hold
attr source  sum(connect)
attr title  "number of active sessions, vector"
vector 258  University.whttpStudents[11].tcpApp[0]  numActiveSessions:vector  ETV
attr interpolationmode  sample-hold
attr source  sum(connect)
attr title  "number of active sessions, vector"
vector 294  University.whttpStudents[14].tcpApp[0]  numActiveSessions:vector  ETV
attr interpolationmode  sample-hold
attr source  sum(connect)
attr title  "number of active sessions, vector"
vector 306  University.whttpStudents[15].tcpApp[0]  numActiveSessions:vector  ETV
attr interpolationmode  sample-hold
attr source  sum(connect)
attr title  "number of active sessions, vector"
vector 282  University.whttpStudents[13].tcpApp[0]  numActiveSessions:vector  ETV
attr interpolationmode  sample-hold
attr source  sum(connect)
attr title  "number of active sessions, vector"
vector 222  University.whttpStudents[8].tcpApp[0]  numActiveSessions:vector  ETV
attr interpolationmode  sample-hold
attr source  sum(connect)
attr title  "number of active sessions, vector"
75	17326 4211129 223182 284662551 5.021817423023 4768.541213935222 119089 1400 1400 166724600 233414440000
76	4228455 4212852 229466 284662304 5.038741626599 4768.518741626599 119088 1400 1400 166723200 233412480000
77	8441307 5400181 223182 284662551 5.021817423023 4768.541213935222 119089 0.016345631015 0.208891541982 1973.5368439967 33.011846036675
94	13841488 35064 280803 284575815 7.267583205024 4765.506477816716 1087 1 1 1087 1087
95	13876552 40672 280803 284575815 7.267583205024 4765.506477816716 1087 222 6171650 904626762 1.5123232668631e+15
96	13917224 49191 280803 284575815 7.267583205024 4765.506477816716 1087 0.072818321663 0.07632939684 79.270517604117 5.781008125136
123	13966415 8644 418959 284569523 8.082961954994 4765.1834967913 225 222 4142743 194022257 3.1876472935491e+14
124	13975059 7475 279387 283555771 7.194746813068 4751.090481854895 225 1 1 225 225
125	13982534 10451 418959 284569523 8.082961954994 4765.1834967913 225 0.083770685675 29.351756835296 1661.5992509925 27400.476220316
126	13992985 14945 277671 284569523 7.110583827685 4765.1834967913 450 0 1 225 225
135	14007930 8882 578616 283810090 11.006073016575 4752.673085577382 232 702 3353529 174260647 2.5726728755277e+14
136	14016812 7715 1358865 284042345 23.017828886624 4754.464788547523 232 1 1 232 232
137	14024527 10751 578616 283810090 11.006073016575 4752.673085577382 232 0.084006189646 29.028590294859 1525.137351137 24495.323325858
138	14035278 15629 578616 284040763 11.006073016575 4754.3822106403 464 -1 0 -232 232
147	14050907 8117 1120051 282990734 17.733149144442 4735.979113454503 211 437 4364576 176373819 3.2066326795863e+14
148	14059024 7040 604877 282792075 14.286700786793 4732.743822411394 211 1 1 211 211
149	14066064 9823 1120051 282990734 17.733149144442 4735.979113454503 211 0.083784702829 27.402872468143 1426.3196862688 23885.332623804
150	14075887 14073 602712 282990734 14.202537789974 4735.979113454503 422 0 1 211 211
159	14089960 8091 551668 283135611 8.791064041195 4736.933763320873 211 3059 6171650 182064728 3.0987851947513e+14
160	14098051 7006 330891 282991508 7.834246712878 4736.023763383364 211 1 1 211 211
161	14105057 9784 551668 283135611 8.791064041195 4736.933763320873 211 0.169889076356 30.109530782508 1612.3776550454 27159.084864823
162	14114841 13996 305795 283135611 7.721283868722 4736.933763320873 422 0 1 211 211
171	14128837 8002 1708459 284622455 31.733954332134 4766.057640195904 208 4984 5403744 176806718 3.0284562525048e+14
172	14136839 6926 1604565 284574710 30.930405072229 4765.433641495053 208 1 1 208 208
173	14143765 9681 1708459 284622455 31.733954332134 4766.057640195904 208 0.252486568115 27.879090355917 1542.2197303272 25663.612784655
174	14153446 13843 1603273 284622455 30.84626018057 4766.057640195904 416 0 1 208 208
186	14167289 1774 587297 277198840 12.157235772997 4678.030093913576 52 1 52 1378 48230
198	14169063 1873 1125245 282139014 18.136183031531 4715.855887760152 55 1 55 1540 56980
210	14170936 1873 1132306 283151502 18.691443647889 4739.155382961799 55 1 55 1540 56980
222	14172809 1781 6630267 278996472 114.330588995363 4700.306571829162 52 1 52 1378 48230
234	14174590 1806 252829 283150514 5.117825708332 4739.042801637683 53 1 53 1431 51039
246	14176396 1738 1608042 277396025 31.169546609998 4681.709439895121 51 1 51 1326 45526
258	14178134 1841 4719984 282430635 79.515031458504 4720.773658089353 54 1 54 1485 53955
270	14179975 1803 254315 283202583 5.182686434241 4746.830431274273 53 1 53 1431 51039
282	14181778 1778 6286075 283156367 109.159464767772 4739.877092146801 52 1 52 1378 48230
294	14183556 1805 5035614 282789528 83.958779334522 4732.409414131624 53 1 53 1431 51039
306	14185361 1740 5068739 278219205 84.368520122147 4688.839210291925 51 1 51 1326 45526
318	14187101 1739 2579469 281917043 43.56204793931 4714.002355186215 51 1 51 1326 45526
330	14188840 1804 268107 278570469 6.357375635844 4693.985723709868 53 1 53 1431 51039
340	14190644 4331974 217010 284662319 5.004868304207 4768.524868304207 119089 1400 1400 166724600 233414440000
358	18522618 1339 4293210 282629837 75 4725 63 1 63 2016 85344
379	18523957 188311 273866 284657395 5.777555644022 4767.201780980918 3995 67.882246607447 11330335.245874 7118244869.1048 3.2961626111006e+16
380	18712268 188463 273866 284657395 5.777555644022 4767.201780980918 3995 0.27293219033993 949.54671555572 597767.63599236 230945854.45512
381	18900731 196220 264387 284661612 5.005860756357 4767.455485725008 4746 280089.09767149 582415.7847964 1557199814.5928 5.2775897681925e+14
382	19096951 184236 264387 284661612 5.005860756357 4767.455485725008 4746 25 939.70400312564 748110.27614182 280252857.7219
387	19281187 196225 264389 284661614 5.005860756357 4767.455485725008 4746 280089.09767149 582415.7847964 1557154496.699 5.2772734283476e+14
388	19477412 184234 264389 284661614 5.005860756357 4767.455485725008 4746 25 939.70400312564 747907.94228255 280162297.86794
389	19661646 188178 265435 284657393 5.057851446077 4767.201780980918 3992 87.338300908777 11330335.245874 7118543583.4124 3.2946022581534e+16
390	19849824 188330 265435 284657393 5.057851446077 4767.201780980918 3992 0.27293219033993 949.54671555572 597603.59723918 230761077.86019
391	20038154 188272 265430 284657177 5.08428553812 4767.190776314252 3990 87.338364475309 13365986.458608 7864064466.6919 4.4556284654749e+16
392	20226426 188416 265430 284657177 5.08428553812 4767.190776314252 3990 0.27293238898534 1118.1897139211 659797.5073219 311698340.80117
393	20414842 196058 264848 284658364 5.016817423023 4767.256213935222 4746 279836.00333189 582771.44112816 1557169652.0354 5.2776149620625e+14
394	20610900 184045 264848 284658364 5.016817423023 4767.256213935222 4746 25 935.59880695386 747967.22487853 280306727.88207
395	20794945 182786 264068 284654327 5.003741626599 4767.003741626599 4763 273952 319648 1413658400 4.1957485718221e+14
396	20977731 163734 264068 284654327 5.003741626599 4767.003741626599 4763 48 52 238150 11907508
397	21141465 182786 264065 284654324 5.003741626599 4767.003741626599 4763 285600 285600 1360312800 3.8850533568e+14
398	21324251 163734 264065 284654324 5.003741626599 4767.003741626599 4763 25 25 119075 2976875
399	21487985 202749 265395 284656830 5.074543035771 4767.128308042785 4304 86.597830970357 292714.49798683 199219246.79251 24129098526206
400	21690734 202747 265395 284656830 5.074543035771 4767.128308042785 4304 0.27061822178236 914.73280620886 619125.90600287 234611388.86288
401	21893481 201350 269721 284657175 5.4293419618 4767.190776314252 4268 117.33333333333 13365986.458608 7938641601.9529 4.4939737812634e+16
402	22094831 201483 269721 284657175 5.4293419618 4767.190776314252 4268 0.33333333333333 1118.1897139211 672230.12306539 316278654.74884
411	22296314 182786 264857 284654570 5.038741626599 4767.038741626599 4763 285600 285600 1360312800 3.8850533568e+14
412	22479100 163734 264857 284654570 5.038741626599 4767.038741626599 4763 25 25 119075 2976875
413	22642834 182786 264260 284654519 5.008741626599 4767.008741626599 4763 273952 319648 1413658400 4.1957485718221e+14
414	22825620 163734 264260 284654519 5.008741626599 4767.008741626599 4763 48 52 238150 11907508
415	22989354 201358 269716 284657166 5.428886101852 4767.190320454304 4268 117.33333333333 20952221.211251 8022263714.6266 4.605058439361e+16
416	23190712 201507 269716 284657166 5.428886101852 4767.190320454304 4268 0.33333333333333 1751.3730693793 679208.84971406 324064205.79958
417	23392219 203053 266061 284657161 5.13655544729 4767.190320454304 4304 86.597815971991 292714.49798683 199219251.59307 24129099479250
418	23595272 203040 266061 284657161 5.13655544729 4767.190320454304 4304 0.27061817491247 914.73280620886 619125.92082427 234611398.04865
423	23798312 76267 422937 284571621 7.110583827685 4764.256171801973 1620 8.371604689484 289125.73278394 38002024.782336 3558777796499.7
424	23874579 76401 422937 284571621 7.110583827685 4764.256171801973 1620 0.026161264654637 903.5179149498 118729.69255181 34737184.690771
425	23950980 79453 268401 284554074 5.118985749465 4763.413149084403 1687 5.8188046331076 10842214.979398 1353688089.7015 5.0541578079424e+15
426	24030433 79609 268401 284554074 5.118985749465 4763.413149084403 1687 0.025976806397802 903.5179149498 113396.16005806 35340750.615141
433	24110042 70284 276838 284646622 6.0308705569 4766.527771101017 1489 6.5638508709475 285711.95741008 33848244.664221 3003321626019.4
434	24180326 70403 276838 284646622 6.0308705569 4766.527771101017 1489 0.020512033971711 892.84986690649 105746.95346062 29312734.28032
435	24250729 73847 273921 284647933 5.777963795233 4766.612073354906 1565 5.1277734280608 10638564.571359 1232142341.1252 4.4128693282142e+15
436	24324576 74017 273921 284647933 5.777963795233 4766.612073354906 1565 0.022891845660986 886.92392369493 103264.46022328 30892635.489712
443	24398593 65267 819855 282987775 14.202537789974 4734.714634412377 1377 5.4001455557053 286763.92902072 33462414.928347 3330488919731.4
444	24463860 65383 819855 282987775 14.202537789974 4734.714634412377 1377 0.016875454861579 896.13727818974 104545.67984946 32509921.424953
445	24529243 69006 268425 283802138 5.118985752324 4751.090004797462 1466 4.0148314225576 10753647.338277 1224352059.4796 4.7495045946906e+15
446	24598249 69611 268425 283802138 5.118985752324 4751.090004797462 1466 0.017923354564989 896.13727818974 102539.12005906 33196760.805187
453	24667860 72904 526855 283137273 7.721283868722 4735.941185481875 1545 6.4113539904723 266342.51149525 35124753.527018 3113593745807
454	24740764 73026 526855 283137273 7.721283868722 4735.941185481875 1545 0.020035481220226 832.32034842265 109737.97461527 30390023.566977
455	24813790 76025 268357 283802066 5.118985737664 4751.090004782802 1611 3.8692214985241 10514965.857594 1280234439.1883 4.5530044638889e+15
456	24889815 76217 268357 283802066 5.118985737664 4751.090004782802 1611 0.017273310261268 876.24715479948 107273.09359423 31864789.828623
463	24966032 69671 1895606 284573145 30.84626018057 4763.579745335941 1476 4.1549962946739 287509.70928637 33957634.160324 3253310891335.3
464	25035703 69780 1895606 284573145 30.84626018057 4763.579745335941 1476 0.012984363420856 898.46784151991 106093.34471991 31755769.670155
465	25105483 73478 268333 284574706 5.118985726034 4763.579745335941 1557 3.4760340514973 10781614.098239 1244649369.7256 4.7984820155315e+15
466	25178961 73688 268333 284574706 5.118985726034 4763.579745335941 1557 0.01551800915847 898.46784151991 104249.47872772 33545956.315574
473	25252649 9610 802626 282616603 12.157235772997 4699.030093913576 259 2.582082868908 202.66666666667 13034.848392602 1161092.9757318
474	25262259 12670 802626 282616603 12.157235772997 4699.030093913576 259 0.0067241741377814 0.66666666666667 34.093345083443 8.040843204561
475	25274929 8876 268389 283802102 5.118985747804 4751.090004792942 189 2.5540908027887 665.36025559144 7016.2627598576 1244523.7348106
476	25283805 9184 268389 283802102 5.118985747804 4751.090004792942 189 0.011402191083878 2.9703582838904 31.322601606507 24.803167546449
483	25292989 10147 1160087 284466947 18.136183031531 4736.855887760152 274 4.6482082293689 202.66666666667 13800.25584965 1226858.4822145
484	25303136 13375 1160087 284466947 18.136183031531 4736.855887760152 274 0.012104708930648 0.66666666666667 36.07705516402 8.4860616349061
485	25316511 8883 268381 283802090 5.118985743077 4751.090004788215 189 2.5540908027887 665.36025559144 7016.2574725755 1244522.3875286
486	25325394 9188 268381 283802090 5.118985743077 4751.090004788215 189 0.011402191083878 2.9703582838904 31.322578002569 24.803140695325
493	25334582 10114 1166727 284449613 18.691443647889 4748.155382961799 273 4.0290128752665 202.66666666667 13777.162001876 1226436.0753541
494	25344696 13327 1166727 284449613 18.691443647889 4748.155382961799 273 0.01049222102934 0.66666666666667 36.016914935442 8.4831970050474
495	25358023 8883 268363 283802072 5.118985737895 4751.090004783033 189 2.5540908027887 665.36025559144 7016.2584556083 1244522.5095926
496	25366906 9188 268363 283802072 5.118985737895 4751.090004783033 189 0.011402191083878 2.9703582838904 31.322582391109 24.803143128042
503	25376094 9748 1162406 283192285 9.322665538448 4721.306571829162 262 4.6804361274753 128 13022.994846059 1138990.7738727
504	25385842 12833 1162406 283192285 9.322665538448 4721.306571829162 262 0.012188635748634 0.33333333333333 33.9487713005 7.734643980317
505	25398675 8885 268375 283802084 5.118985742003 4751.090004787141 189 2.5540908027887 665.36025559144 7016.2725747061 1244528.8038075