file 30259837 1471644313                                        
version 2
run _18to20off-5-20160819-23:40:47-18817
attr configname _18to20off
attr datetime 20160819-23:40:47
attr experiment _18to20off
attr inifile omnetpp.ini
attr iterationvars $0=18
attr iterationvars2 "$0=18, $repetition=5"
attr measurement $0=18
attr network University
attr processid 18817
attr repetition 5
attr replication #5
attr resultdir /utmnt/ut/si/sinp1070
attr runnumber 5
attr seedset 5

vector 75  University.profLaptop.udpApp[0]  rcvdPk:vector(packetBytes)  ETV
attr interpolationmode  none
attr source  rcvdPk
attr title  "packets received, vector(packetBytes)"
vector 77  University.profLaptop.udpApp[0]  rcvdPkLifetime:vector  ETV
attr interpolationmode  none
attr source  messageAge(rcvdPk)
attr title  "received packet lifetime, vector"
attr unit  s
vector 282  University.whttpStudents[13].tcpApp[0]  numActiveSessions:vector  ETV
attr interpolationmode  sample-hold
attr source  sum(connect)
attr title  "number of active sessions, vector"
vector 76  University.profLaptop.udpApp[0]  sentPk:vector(packetBytes)  ETV
attr interpolationmode  none
attr source  sentPk
attr title  "packets sent, vector(packetBytes)"
vector 340  University.whostVideoConf.udpApp[0]  sentPk:vector(packetBytes)  ETV
attr interpolationmode  none
attr source  sentPk
attr title  "packets sent, vector(packetBytes)"
vector 625  University.accessPoint.wlan[0].inputHook[0]  "thruput (bit/sec)"  ETV
vector 626  University.accessPoint.wlan[0].inputHook[0]  packet/sec  ETV
vector 633  University.accessPoint.eth[0].outputHook[0]  "thruput (bit/sec)"  ETV
vector 634  University.accessPoint.eth[0].outputHook[0]  packet/sec  ETV
vector 381  University.remoteR.eth[0].inputHook[0]  "thruput (bit/sec)"  ETV
vector 382  University.remoteR.eth[0].inputHook[0]  packet/sec  ETV
vector 413  University.profLaptop.ppp[0].inputHook[0]  "thruput (bit/sec)"  ETV
vector 414  University.profLaptop.ppp[0].inputHook[0]  packet/sec  ETV
vector 411  University.profLaptop.ppp[0].outputHook[0]  "thruput (bit/sec)"  ETV
vector 412  University.profLaptop.ppp[0].outputHook[0]  packet/sec  ETV
vector 397  University.mainR.ppp[1].inputHook[0]  "thruput (bit/sec)"  ETV
vector 398  University.mainR.ppp[1].inputHook[0]  packet/sec  ETV
vector 395  University.mainR.ppp[1].outputHook[0]  "thruput (bit/sec)"  ETV
vector 396  University.mainR.ppp[1].outputHook[0]  packet/sec  ETV
vector 603  University.whostVideoConf.wlan[0].outputHook[0]  "thruput (bit/sec)"  ETV
vector 604  University.whostVideoConf.wlan[0].outputHook[0]  packet/sec  ETV
vector 387  University.remoteR.ppp[0].outputHook[0]  "thruput (bit/sec)"  ETV
vector 388  University.remoteR.ppp[0].outputHook[0]  packet/sec  ETV
vector 393  University.mainR.ppp[0].inputHook[0]  "thruput (bit/sec)"  ETV
vector 394  University.mainR.ppp[0].inputHook[0]  packet/sec  ETV
vector 126  University.whttpStudents[0].tcpApp[0]  numActiveSessions:vector  ETV
attr interpolationmode  sample-hold
attr source  sum(connect)
attr title  "number of active sessions, vector"
vector 379  University.remoteR.eth[0].outputHook[0]  "thruput (bit/sec)"  ETV
vector 380  University.remoteR.eth[0].outputHook[0]  packet/sec  ETV
vector 635  University.accessPoint.eth[0].inputHook[0]  "thruput (bit/sec)"  ETV
vector 636  University.accessPoint.eth[0].inputHook[0]  packet/sec  ETV
vector 623  University.accessPoint.wlan[0].outputHook[0]  "thruput (bit/sec)"  ETV
vector 624  University.accessPoint.wlan[0].outputHook[0]  packet/sec  ETV
vector 545  University.whttpStudents[12].wlan[0].inputHook[0]  "thruput (bit/sec)"  ETV
vector 546  University.whttpStudents[12].wlan[0].inputHook[0]  packet/sec  ETV
vector 535  University.whttpStudents[11].wlan[0].inputHook[0]  "thruput (bit/sec)"  ETV
vector 536  University.whttpStudents[11].wlan[0].inputHook[0]  packet/sec  ETV
vector 465  University.whttpStudents[4].wlan[0].inputHook[0]  "thruput (bit/sec)"  ETV
vector 466  University.whttpStudents[4].wlan[0].inputHook[0]  packet/sec  ETV
vector 495  University.whttpStudents[7].wlan[0].inputHook[0]  "thruput (bit/sec)"  ETV
vector 496  University.whttpStudents[7].wlan[0].inputHook[0]  packet/sec  ETV
vector 485  University.whttpStudents[6].wlan[0].inputHook[0]  "thruput (bit/sec)"  ETV
vector 486  University.whttpStudents[6].wlan[0].inputHook[0]  packet/sec  ETV
vector 455  University.whttpStudents[3].wlan[0].inputHook[0]  "thruput (bit/sec)"  ETV
vector 456  University.whttpStudents[3].wlan[0].inputHook[0]  packet/sec  ETV
vector 515  University.whttpStudents[9].wlan[0].inputHook[0]  "thruput (bit/sec)"  ETV
vector 516  University.whttpStudents[9].wlan[0].inputHook[0]  packet/sec  ETV
vector 575  University.whttpStudents[15].wlan[0].inputHook[0]  "thruput (bit/sec)"  ETV
vector 576  University.whttpStudents[15].wlan[0].inputHook[0]  packet/sec  ETV
vector 445  University.whttpStudents[2].wlan[0].inputHook[0]  "thruput (bit/sec)"  ETV
vector 446  University.whttpStudents[2].wlan[0].inputHook[0]  packet/sec  ETV
vector 525  University.whttpStudents[10].wlan[0].inputHook[0]  "thruput (bit/sec)"  ETV
vector 526  University.whttpStudents[10].wlan[0].inputHook[0]  packet/sec  ETV
vector 475  University.whttpStudents[5].wlan[0].inputHook[0]  "thruput (bit/sec)"  ETV
vector 476  University.whttpStudents[5].wlan[0].inputHook[0]  packet/sec  ETV
vector 505  University.whttpStudents[8].wlan[0].inputHook[0]  "thruput (bit/sec)"  ETV
vector 506  University.whttpStudents[8].wlan[0].inputHook[0]  packet/sec  ETV
vector 595  University.whttpStudents[17].wlan[0].inputHook[0]  "thruput (bit/sec)"  ETV
vector 596  University.whttpStudents[17].wlan[0].inputHook[0]  packet/sec  ETV
vector 565  University.whttpStudents[14].wlan[0].inputHook[0]  "thruput (bit/sec)"  ETV
vector 566  University.whttpStudents[14].wlan[0].inputHook[0]  packet/sec  ETV
vector 615  University.whostFTP.wlan[0].inputHook[0]  "thruput (bit/sec)"  ETV
vector 616  University.whostFTP.wlan[0].inputHook[0]  packet/sec  ETV
vector 605  University.whostVideoConf.wlan[0].inputHook[0]  "thruput (bit/sec)"  ETV
vector 606  University.whostVideoConf.wlan[0].inputHook[0]  packet/sec  ETV
vector 585  University.whttpStudents[16].wlan[0].inputHook[0]  "thruput (bit/sec)"  ETV
vector 586  University.whttpStudents[16].wlan[0].inputHook[0]  packet/sec  ETV
vector 555  University.whttpStudents[13].wlan[0].inputHook[0]  "thruput (bit/sec)"  ETV
vector 556  University.whttpStudents[13].wlan[0].inputHook[0]  packet/sec  ETV
vector 435  University.whttpStudents[1].wlan[0].inputHook[0]  "thruput (bit/sec)"  ETV
vector 436  University.whttpStudents[1].wlan[0].inputHook[0]  packet/sec  ETV
vector 425  University.whttpStudents[0].wlan[0].inputHook[0]  "thruput (bit/sec)"  ETV
vector 426  University.whttpStudents[0].wlan[0].inputHook[0]  packet/sec  ETV
vector 399  University.mainR.ppp[2].outputHook[0]  "thruput (bit/sec)"  ETV
vector 400  University.mainR.ppp[2].outputHook[0]  packet/sec  ETV
vector 417  University.Server.ppp[0].inputHook[0]  "thruput (bit/sec)"  ETV
vector 418  University.Server.ppp[0].inputHook[0]  packet/sec  ETV
vector 415  University.Server.ppp[0].outputHook[0]  "thruput (bit/sec)"  ETV
vector 416  University.Server.ppp[0].outputHook[0]  packet/sec  ETV
vector 401  University.mainR.ppp[2].inputHook[0]  "thruput (bit/sec)"  ETV
vector 402  University.mainR.ppp[2].inputHook[0]  packet/sec  ETV
vector 124  University.whttpStudents[0].tcpApp[0]  sentPk:vector(packetBytes)  ETV
attr interpolationmode  none
attr source  sentPk
attr title  "packets sent, vector(packetBytes)"
vector 94  University.Server.tcpApp[0]  rcvdPk:vector(packetBytes)  ETV
attr interpolationmode  none
attr source  rcvdPk
attr title  "packets received, vector(packetBytes)"
vector 96  University.Server.tcpApp[0]  endToEndDelay:vector  ETV
attr interpolationmode  none
attr source  messageAge(rcvdPk)
attr title  "end-to-end delay, vector"
attr unit  s
vector 95  University.Server.tcpApp[0]  sentPk:vector(packetBytes)  ETV
attr interpolationmode  none
attr source  sentPk
attr title  "packets sent, vector(packetBytes)"
vector 150  University.whttpStudents[2].tcpApp[0]  numActiveSessions:vector  ETV
attr interpolationmode  sample-hold
attr source  sum(connect)
attr title  "number of active sessions, vector"
vector 148  University.whttpStudents[2].tcpApp[0]  sentPk:vector(packetBytes)  ETV
attr interpolationmode  none
attr source  sentPk
attr title  "packets sent, vector(packetBytes)"
vector 423  University.whttpStudents[0].wlan[0].outputHook[0]  "thruput (bit/sec)"  ETV
vector 424  University.whttpStudents[0].wlan[0].outputHook[0]  packet/sec  ETV
vector 391  University.mainR.ppp[0].outputHook[0]  "thruput (bit/sec)"  ETV
vector 392  University.mainR.ppp[0].outputHook[0]  packet/sec  ETV
vector 389  University.remoteR.ppp[0].inputHook[0]  "thruput (bit/sec)"  ETV
vector 390  University.remoteR.ppp[0].inputHook[0]  packet/sec  ETV
vector 234  University.whttpStudents[9].tcpApp[0]  numActiveSessions:vector  ETV
attr interpolationmode  sample-hold
attr source  sum(connect)
attr title  "number of active sessions, vector"
vector 553  University.whttpStudents[13].wlan[0].outputHook[0]  "thruput (bit/sec)"  ETV
vector 554  University.whttpStudents[13].wlan[0].outputHook[0]  packet/sec  ETV
vector 443  University.whttpStudents[2].wlan[0].outputHook[0]  "thruput (bit/sec)"  ETV
vector 444  University.whttpStudents[2].wlan[0].outputHook[0]  packet/sec  ETV
vector 138  University.whttpStudents[1].tcpApp[0]  numActiveSessions:vector  ETV
attr interpolationmode  sample-hold
attr source  sum(connect)
attr title  "number of active sessions, vector"
vector 136  University.whttpStudents[1].tcpApp[0]  sentPk:vector(packetBytes)  ETV
attr interpolationmode  none
attr source  sentPk
attr title  "packets sent, vector(packetBytes)"
vector 162  University.whttpStudents[3].tcpApp[0]  numActiveSessions:vector  ETV
attr interpolationmode  sample-hold
attr source  sum(connect)
attr title  "number of active sessions, vector"
vector 160  University.whttpStudents[3].tcpApp[0]  sentPk:vector(packetBytes)  ETV
attr interpolationmode  none
attr source  sentPk
attr title  "packets sent, vector(packetBytes)"
vector 513  University.whttpStudents[9].wlan[0].outputHook[0]  "thruput (bit/sec)"  ETV
vector 514  University.whttpStudents[9].wlan[0].outputHook[0]  packet/sec  ETV
vector 433  University.whttpStudents[1].wlan[0].outputHook[0]  "thruput (bit/sec)"  ETV
vector 434  University.whttpStudents[1].wlan[0].outputHook[0]  packet/sec  ETV
vector 573  University.whttpStudents[15].wlan[0].outputHook[0]  "thruput (bit/sec)"  ETV
vector 574  University.whttpStudents[15].wlan[0].outputHook[0]  packet/sec  ETV
vector 493  University.whttpStudents[7].wlan[0].outputHook[0]  "thruput (bit/sec)"  ETV
vector 494  University.whttpStudents[7].wlan[0].outputHook[0]  packet/sec  ETV
vector 453  University.whttpStudents[3].wlan[0].outputHook[0]  "thruput (bit/sec)"  ETV
vector 454  University.whttpStudents[3].wlan[0].outputHook[0]  packet/sec  ETV
vector 159  University.whttpStudents[3].tcpApp[0]  rcvdPk:vector(packetBytes)  ETV
attr interpolationmode  none
attr source  rcvdPk
attr title  "packets received, vector(packetBytes)"
vector 161  University.whttpStudents[3].tcpApp[0]  endToEndDelay:vector  ETV
attr interpolationmode  none
attr source  messageAge(rcvdPk)
attr title  "end-to-end delay, vector"
attr unit  s
vector 258  University.whttpStudents[11].tcpApp[0]  numActiveSessions:vector  ETV
attr interpolationmode  sample-hold
attr source  sum(connect)
attr title  "number of active sessions, vector"
vector 147  University.whttpStudents[2].tcpApp[0]  rcvdPk:vector(packetBytes)  ETV
attr interpolationmode  none
attr source  rcvdPk
attr title  "packets received, vector(packetBytes)"
vector 149  University.whttpStudents[2].tcpApp[0]  endToEndDelay:vector  ETV
attr interpolationmode  none
attr source  messageAge(rcvdPk)
attr title  "end-to-end delay, vector"
attr unit  s
vector 135  University.whttpStudents[1].tcpApp[0]  rcvdPk:vector(packetBytes)  ETV
attr interpolationmode  none
attr source  rcvdPk
attr title  "packets received, vector(packetBytes)"
vector 137  University.whttpStudents[1].tcpApp[0]  endToEndDelay:vector  ETV
attr interpolationmode  none
attr source  messageAge(rcvdPk)
attr title  "end-to-end delay, vector"
attr unit  s
vector 123  University.whttpStudents[0].tcpApp[0]  rcvdPk:vector(packetBytes)  ETV
attr interpolationmode  none
attr source  rcvdPk
attr title  "packets received, vector(packetBytes)"
vector 125  University.whttpStudents[0].tcpApp[0]  endToEndDelay:vector  ETV
attr interpolationmode  none
attr source  messageAge(rcvdPk)
attr title  "end-to-end delay, vector"
attr unit  s
vector 533  University.whttpStudents[11].wlan[0].outputHook[0]  "thruput (bit/sec)"  ETV
vector 534  University.whttpStudents[11].wlan[0].outputHook[0]  packet/sec  ETV
vector 270  University.whttpStudents[12].tcpApp[0]  numActiveSessions:vector  ETV
attr interpolationmode  sample-hold
attr source  sum(connect)
attr title  "number of active sessions, vector"
vector 613  University.whostFTP.wlan[0].outputHook[0]  "thruput (bit/sec)"  ETV
vector 614  University.whostFTP.wlan[0].outputHook[0]  packet/sec  ETV
vector 473  University.whttpStudents[5].wlan[0].outputHook[0]  "thruput (bit/sec)"  ETV
vector 474  University.whttpStudents[5].wlan[0].outputHook[0]  packet/sec  ETV
vector 543  University.whttpStudents[12].wlan[0].outputHook[0]  "thruput (bit/sec)"  ETV
vector 544  University.whttpStudents[12].wlan[0].outputHook[0]  packet/sec  ETV
vector 503  University.whttpStudents[8].wlan[0].outputHook[0]  "thruput (bit/sec)"  ETV
vector 504  University.whttpStudents[8].wlan[0].outputHook[0]  packet/sec  ETV
vector 198  University.whttpStudents[6].tcpApp[0]  numActiveSessions:vector  ETV
attr interpolationmode  sample-hold
attr source  sum(connect)
attr title  "number of active sessions, vector"
vector 294  University.whttpStudents[14].tcpApp[0]  numActiveSessions:vector  ETV
attr interpolationmode  sample-hold
attr source  sum(connect)
attr title  "number of active sessions, vector"
vector 483  University.whttpStudents[6].wlan[0].outputHook[0]  "thruput (bit/sec)"  ETV
vector 484  University.whttpStudents[6].wlan[0].outputHook[0]  packet/sec  ETV
vector 563  University.whttpStudents[14].wlan[0].outputHook[0]  "thruput (bit/sec)"  ETV
vector 564  University.whttpStudents[14].wlan[0].outputHook[0]  packet/sec  ETV
vector 246  University.whttpStudents[10].tcpApp[0]  numActiveSessions:vector  ETV
attr interpolationmode  sample-hold
attr source  sum(connect)
attr title  "number of active sessions, vector"
vector 523  University.whttpStudents[10].wlan[0].outputHook[0]  "thruput (bit/sec)"  ETV
vector 524  University.whttpStudents[10].wlan[0].outputHook[0]  packet/sec  ETV
vector 318  University.whttpStudents[16].tcpApp[0]  numActiveSessions:vector  ETV
attr interpolationmode  sample-hold
attr source  sum(connect)
attr title  "number of active sessions, vector"
vector 330  University.whttpStudents[17].tcpApp[0]  numActiveSessions:vector  ETV
attr interpolationmode  sample-hold
attr source  sum(connect)
attr title  "number of active sessions, vector"
vector 583  University.whttpStudents[16].wlan[0].outputHook[0]  "thruput (bit/sec)"  ETV
vector 584  University.whttpStudents[16].wlan[0].outputHook[0]  packet/sec  ETV
vector 593  University.whttpStudents[17].wlan[0].outputHook[0]  "thruput (bit/sec)"  ETV
vector 594  University.whttpStudents[17].wlan[0].outputHook[0]  packet/sec  ETV
vector 174  University.whttpStudents[4].tcpApp[0]  numActiveSessions:vector  ETV
attr interpolationmode  sample-hold
attr source  sum(connect)
attr title  "number of active sessions, vector"
vector 172  University.whttpStudents[4].tcpApp[0]  sentPk:vector(packetBytes)  ETV
attr interpolationmode  none
attr source  sentPk
attr title  "packets sent, vector(packetBytes)"
vector 463  University.whttpStudents[4].wlan[0].outputHook[0]  "thruput (bit/sec)"  ETV
vector 464  University.whttpStudents[4].wlan[0].outputHook[0]  packet/sec  ETV
vector 171  University.whttpStudents[4].tcpApp[0]  rcvdPk:vector(packetBytes)  ETV
attr interpolationmode  none
attr source  rcvdPk
attr title  "packets received, vector(packetBytes)"
vector 173  University.whttpStudents[4].tcpApp[0]  endToEndDelay:vector  ETV
attr interpolationmode  none
attr source  messageAge(rcvdPk)
attr title  "end-to-end delay, vector"
attr unit  s
vector 358  University.whostFTP.tcpApp[0]  numActiveSessions:vector  ETV
attr interpolationmode  sample-hold
attr source  sum(connect)
attr title  "number of active sessions, vector"
vector 186  University.whttpStudents[5].tcpApp[0]  numActiveSessions:vector  ETV
attr interpolationmode  sample-hold
attr source  sum(connect)
attr title  "number of active sessions, vector"
vector 210  University.whttpStudents[7].tcpApp[0]  numActiveSessions:vector  ETV
attr interpolationmode  sample-hold
attr source  sum(connect)
attr title  "number of active sessions, vector"
vector 222  University.whttpStudents[8].tcpApp[0]  numActiveSessions:vector  ETV
attr interpolationmode  sample-hold
attr source  sum(connect)
attr title  "number of active sessions, vector"
vector 306  University.whttpStudents[15].tcpApp[0]  numActiveSessions:vector  ETV
attr interpolationmode  sample-hold
attr source  sum(connect)
attr title  "number of active sessions, vector"
75	17326 4368608 62420 352350684 5.016185187562 4936.136185187562 123278 1400 1400 172589200 241624880000
76	4385934 4371141 63115 352351436 5.034829292139 4936.154829292139 123279 1400 1400 172590600 241626840000
77	8757075 5598915 62420 352350684 5.016185187562 4936.136185187562 123278 0.016319333401 0.19841115114 2051.3969294436 34.640490938998
94	14355990 45665 76349 352081243 6.831539517959 4934.15288741351 1412 1 1 1412 1412
95	14401655 52966 76349 352081243 6.831539517959 4934.15288741351 1412 136 6222282 1141555164 1.8045624462067e+15
96	14454621 64008 76349 352081243 6.831539517959 4934.15288741351 1412 0.018340290084 0.026835628357 26.072551176499 0.48171555123481
123	14518629 11004 1629032 351776233 15.071631703732 4929.446655974637 286 3245 4691869 216983784 3.4976585914885e+14
124	14529633 9533 75843 351247646 6.813190180073 4924.45397361846 286 1 1 286 286
125	14539166 13233 1629032 351776233 15.071631703732 4929.446655974637 286 0.063624119889 16.052417825398 773.80042077927 4402.1804233373
126	14552399 19069 74835 351776233 6.782146720127 4929.446655974637 572 0 1 286 286
135	14571468 10691 1623621 352348551 14.38936997708 4936.082441483402 277 142 6222282 238765751 4.0898286027157e+14
136	14582159 9247 621032 351811501 10.084563742469 4931.199112517266 277 1 1 277 277
137	14591406 12825 1623621 352348551 14.38936997708 4936.082441483402 277 0.030639236636 11.360643002 853.10368959689 4854.1169264092
138	14604231 18496 618349 352348551 10.053511230755 4936.082441483402 554 0 1 277 277
147	14622727 11054 1616507 351237020 14.079267426765 4923.039311999013 287 6018 5322687 225792076 3.7191809717807e+14
148	14633781 9570 286188 351163501 7.612191172379 4922.697090559661 287 1 1 287 287
149	14643351 13274 1616507 351237020 14.079267426765 4923.039311999013 287 0.095450710299 40.876920134727 830.28264315894 6016.8607418872
150	14656625 19135 281619 351237020 7.581020587031 4923.039311999013 574 0 1 287 287
159	14675760 11265 1040003 352059798 12.329532889642 4933.124551727958 293 136 3174071 236098481 3.3922224595967e+14
160	14687025 9782 821628 352080334 10.995282713939 4934.134547103482 294 1 1 294 294
161	14696807 13536 1040003 352059798 12.329532889642 4933.124551727958 293 0.030603103268 11.497168919618 858.65227521409 4744.6552935221
162	14710343 19543 817512 352079457 10.960181143423 4934.105079721146 587 0 1 294 294
171	14729886 10338 4169351 351164802 71.615303884062 4922.700614731687 268 1721 4176966 222919546 3.3368231163183e+14
172	14740224 8949 3898379 350816010 70.393469794749 4917.917318856605 268 1 1 268 268
173	14749173 12400 4169351 351164802 71.615303884062 4922.700614731687 268 0.061618791916 10.394853002074 803.58171358582 4359.9692012971
174	14761573 17887 3897506 351164802 70.362444398539 4922.700614731687 536 0 1 268 268
186	14779460 1850 4798460 349702515 86.819460691883 4889.001165611002 54 1 54 1485 53955
198	14781310 1847 2005506 348902721 25.678106972484 4860.450671230915 54 1 54 1485 53955
210	14783157 1819 5279845 352228423 93.700289663254 4934.666660595188 53 1 53 1431 51039
222	14784976 1852 5546319 349325956 100.982588751503 4870.884604318199 54 1 54 1485 53955
234	14786828 1913 394068 352011996 8.022549544713 4931.915908036442 56 1 56 1596 60116
246	14788741 1917 2577638 350103180 31.544100916993 4896.804008908367 56 1 56 1596 60116
258	14790658 1843 1216244 349284259 13.006717084391 4867.052530608985 54 1 54 1485 53955
270	14792501 1880 1660365 352326285 19.744311576066 4935.58709668693 55 1 55 1540 56980
282	14794381 1907 62421 349594306 5.025502638381 4884.475849003883 56 1 56 1596 60116
294	14796288 1878 2024786 350334697 26.278356328021 4900.038258776123 55 1 55 1540 56980
306	14798166 1847 7584502 350095846 141.228042373741 4895.723237138452 54 1 54 1485 53955
318	14800013 1918 2726907 351497055 47.556106895618 4926.638958524208 56 1 56 1596 60116
330	14801931 1849 2733148 350715468 48.368399923758 4911.953152157869 54 1 54 1485 53955
340	14803780 4494421 63137 352351465 5.039839556571 4936.159839556571 123279 1400 1400 172590600 241626840000
358	19298201 1387 4197027 349352663 75 4875 65 1 65 2145 93665
379	19299588 147543 74937 352326775 5.025574484336 4934.589923874216 3123 30.830322895953 11396372.255198 8603894463.6015 4.7029326545425e+16
380	19447131 147621 74937 352326775 5.025574484336 4934.589923874216 3123 0.13763537007122 952.61918671917 722317.69835765 330258803.64605
381	19594752 206607 69880 352351583 5.000228520896 4935.143568645566 4911 277376.61081953 587630.2346893 1656569665.5151 5.8157935090053e+14
382	19801359 195668 69880 352351583 5.000228520896 4935.143568645566 4911 25 941.97356755854 915411.54499959 389132445.82184
387	19997027 206619 70101 352351585 5.040228520896 4935.143568645566 4911 277376.61081953 587630.2346893 1656516629.0539 5.8154005892538e+14
388	20203646 195680 70101 352351585 5.040228520896 4935.143568645566 4911 25 940.97359561846 915173.22260673 388988315.81922
389	20399326 147057 313645 352326773 6.813114180554 4934.589923874216 3112 59.787340358742 11396148.344707 8599188619.6227 4.7030656739054e+16
390	20546383 147104 313645 352326773 6.813114180554 4934.589923874216 3112 0.18683543862107 951.61958631338 721706.25714493 330110761.31625
391	20693487 146634 310049 352327936 6.803077513888 4934.609270843096 3103 59.787370146472 13930379.53652 9542607909.6996 6.0349476487414e+16
392	20840121 146674 310049 352327936 6.803077513888 4934.609270843096 3103 0.18683553170773 1163.2893962729 800395.5505925 423147951.93874
393	20986795 206585 70174 352351676 5.051185187562 4935.153599978899 4911 278344.29649422 589166.72926519 1656515181.0501 5.8157104505588e+14
394	21193380 195642 70174 352351676 5.051185187562 4935.153599978899 4911 25 939.64552188168 915158.18030762 389256508.26908
395	21389022 189636 69977 352346035 5.039829292139 4935.039829292139 4931 262528 319648 1463509376 4.343689328169e+14
396	21578658 169912 69977 352346035 5.039829292139 4935.039829292139 4931 47 52 246549 12327421
397	21748570 189636 69974 352346032 5.039829292139 4935.039829292139 4931 285600 285600 1408293600 4.0220865216e+14
398	21938206 169912 69974 352346032 5.039829292139 4935.039829292139 4931 25 25 123275 3081875
399	22108118 180774 75532 352324812 5.037191222912 4934.537499351218 3828 156.02173625376 294649.26785972 242432481.59853 34200395252028
400	22288892 180825 75532 352324812 5.037191222912 4934.537499351218 3828 0.39768481150677 917.55552353939 754345.46015151 332619914.01657
401	22469717 180059 75748 352327934 5.04643345145 4934.609270843096 3811 93.323369100255 13930379.53652 9812375651.3936 6.0382707330254e+16
402	22649776 180143 75748 352327934 5.04643345145 4934.609270843096 3811 0.26512320767118 1163.2893962729 828995.17016565 425828647.65808
411	22829919 189636 69969 352345994 5.034829292139 4935.034829292139 4931 285600 285600 1408293600 4.0220865216e+14
412	23019555 169912 69969 352345994 5.034829292139 4935.034829292139 4931 25 25 123275 3081875
413	23189467 189635 69950 352344804 5.004829292139 4935.004829292139 4931 273952 308224 1463509376 4.3436710570803e+14
414	23379102 169911 69950 352344804 5.004829292139 4935.004829292139 4931 48 51 246549 12327407
415	23549013 180018 75743 352327921 5.044726222242 4934.607447453888 3811 93.323369100255 18556403.531704 9869378375.5092 6.1381186322247e+16
416	23729031 180120 75743 352327921 5.044726222242 4934.607447453888 3811 0.26512320767118 1551.1735623231 833748.13075544 432817949.46553
417	23909151 180785 75739 352325031 5.044726222242 4934.545033710548 3828 156.02168756821 294649.26785972 242432505.67849 34200402958788
418	24089936 180846 75739 352325031 5.044726222242 4934.545033710548 3828 0.39768481150677 917.55552353939 754345.53506155 332619988.78522
423	24270782 40495 307471 351559709 6.782146720127 4927.460589037393 859 13.738330673413 288915.49915983 37367530.641484 4996302995867.2
424	24311277 40556 307471 351559709 6.782146720127 4927.460589037393 859 0.042932283354415 902.86093487446 116741.23841415 48768091.726208
425	24351833 47077 75234 351811168 5.026662703855 4928.523351532347 999 6.8538183679256 10824450.20981 1417315289.6144 6.9782486461715e+15
426	24398910 47313 75234 351811168 5.026662703855 4928.523351532347 999 0.030597403428239 902.08413681936 118809.63576691 48823069.134527
433	24446223 44009 827070 352312151 10.053511230755 4934.244479037021 932 13.480160374277 289340.1036447 41109973.417569 5430949682676.2
434	24490232 44134 827070 352312151 10.053511230755 4934.244479037021 932 0.042125501169614 904.1878238897 128433.88380764 53009173.911274
435	24534366 50631 75170 352313630 5.026662716797 4934.275670810479 1073 4.7007650434916 10826380.785518 1576280526.8117 7.7241504607262e+15
436	24584997 50883 75170 352313630 5.026662716797 4934.275670810479 1073 0.020985558229873 902.58049219892 132077.79979633 54061544.343702
443	24635880 44631 533679 351155173 7.581020587031 4905.507945820749 946 9.3898284488622 288105.19764605 40827797.388566 5405695617074.1
444	24680511 44799 533679 351155173 7.581020587031 4905.507945820749 946 0.029343213902694 900.32874264392 127552.93758097 52764769.470073
445	24725310 50526 75108 351811150 5.026662702697 4928.388779009012 1070 3.6245964225893 10692916.977261 1518134609.9956 7.3902660313861e+15
446	24775836 50752 75108 351811150 5.026662702697 4928.388779009012 1070 0.016181234029417 891.57951083352 127242.25987399 51732202.814747
453	24826588 45189 1011898 352350744 10.960181143423 4935.111987086331 958 5.7269393658454 288768.26832642 40167093.869275 4875602342245.3
454	24871777 45244 1011898 352350744 10.960181143423 4935.111987086331 958 0.017896685518267 902.40083852006 125488.3160572 47585901.190035
455	24917021 50975 75090 352305916 5.026662694569 4934.134547103482 1081 5.9146866014341 10831558.423854 1523463740.6967 6.8933232912533e+15
456	24967996 51127 75090 352305916 5.026662694569 4934.134547103482 1081 0.026404850899259 902.64986089948 127703.48107901 48286669.131689
463	25019123 41423 4093515 351129290 70.362444398539 4920.935821393803 876 10.888169230332 287815.64543484 38260887.483747 4792929558822.7
464	25060546 41467 4093515 351129290 70.362444398539 4920.935821393803 876 0.034025528844787 899.42389198389 119533.81115736 46781015.749694
465	25102013 47577 75072 351811114 5.026662687921 4928.388778994236 1007 3.8907493673306 10807392.776826 1434622942.5211 6.6025524894028e+15
466	25149590 47762 75072 351811114 5.026662687921 4928.388778994236 1007 0.01736941681844 900.6160647355 120215.01914759 46240293.271478
473	25197352 10122 1897250 352077499 10.262814910272 4910.001165611002 272 3.2119636309615 202.66666666667 13600.419745384 1206358.6787571
474	25207474 13321 1897250 352077499 10.262814910272 4910.001165611002 272 0.0083644886222956 0.66666666666667 35.577279855564 8.3488801504959
475	25220795 9966 75120 351811162 5.02666270361 4928.388779009925 213 2.1131460993534 354.1707465743 8459.7247904966 1095132.717079
476	25230761 10313 75120 351811162 5.02666270361 4928.388779009925 213 0.0094336879435422 1.5811194043495 37.766628529003 21.82582742903
483	25241074 10019 2439791 350544025 25.678106972484 4881.450671230915 269 3.5769282564587 202.66666666667 13597.946410531 1229402.7891181
484	25251093 13171 2439791 350544025 25.678106972484 4881.450671230915 269 0.0093149173345279 0.66666666666667 35.71482233037 8.6724052138653
485	25264264 9979 75084 351811126 5.026662693109 4928.388778999424 213 2.1131460993534 354.1707465743 8459.710339783 1095126.7013926
486	25274243 10322 75084 351811126 5.026662693109 4928.388778999424 213 0.0094336879435422 1.5811194043495 37.766564016888 21.82570753732
493	25284565 9828 978829 352228426 5.585150139911 4899.546317697453 264 3.7303729466297 128 13068.414142575 1141462.5762587
494	25294393 12940 978829 352228426 5.585150139911 4899.546317697453 264 0.0097145128818483 0.33333333333333 34.050744844746 7.742103636091
495	25307333 9991 75078 351811120 5.026662691952 4928.388778998267 213 2.1131460993534 354.1707465743 8459.7127334891 1095126.617407
496	25317324 10339 75078 351811120 5.026662691952 4928.388778998267 213 0.0094336879435422 1.5811194043495 37.766574703076 21.825705863501
503	25327663 10144 1913505 350771218 10.763196392515 4891.884604318199 272 3.3866995818584 202.66666666667 13584.830158118 1206101.4805476
504	25337807 13336 1913505 350771218 10.763196392515 4891.884604318199 272 0.0088195301610896 0.66666666666667 35.538316451772 8.3480931909005
505	25351143 9988 75128 351811174 5.026662705215 4928.38877901153 213 2.1131460993534 354.1707465743 8459.7327504555 1095135.0798971