file 31924453 1471643967                                        
version 2
run _18to20off-6-20160819-23:42:12-18832
attr configname _18to20off
attr datetime 20160819-23:42:12
attr experiment _18to20off
attr inifile omnetpp.ini
attr iterationvars $0=18
attr iterationvars2 "$0=18, $repetition=6"
attr measurement $0=18
attr network University
attr processid 18832
attr repetition 6
attr replication #6
attr resultdir /utmnt/ut/si/sinp1070
attr runnumber 6
attr seedset 6

vector 75  University.profLaptop.udpApp[0]  rcvdPk:vector(packetBytes)  ETV
attr interpolationmode  none
attr source  rcvdPk
attr title  "packets received, vector(packetBytes)"
vector 77  University.profLaptop.udpApp[0]  rcvdPkLifetime:vector  ETV
attr interpolationmode  none
attr source  messageAge(rcvdPk)
attr title  "received packet lifetime, vector"
attr unit  s
vector 76  University.profLaptop.udpApp[0]  sentPk:vector(packetBytes)  ETV
attr interpolationmode  none
attr source  sentPk
attr title  "packets sent, vector(packetBytes)"
vector 340  University.whostVideoConf.udpApp[0]  sentPk:vector(packetBytes)  ETV
attr interpolationmode  none
attr source  sentPk
attr title  "packets sent, vector(packetBytes)"
vector 411  University.profLaptop.ppp[0].outputHook[0]  "thruput (bit/sec)"  ETV
vector 412  University.profLaptop.ppp[0].outputHook[0]  packet/sec  ETV
vector 397  University.mainR.ppp[1].inputHook[0]  "thruput (bit/sec)"  ETV
vector 398  University.mainR.ppp[1].inputHook[0]  packet/sec  ETV
vector 395  University.mainR.ppp[1].outputHook[0]  "thruput (bit/sec)"  ETV
vector 396  University.mainR.ppp[1].outputHook[0]  packet/sec  ETV
vector 413  University.profLaptop.ppp[0].inputHook[0]  "thruput (bit/sec)"  ETV
vector 414  University.profLaptop.ppp[0].inputHook[0]  packet/sec  ETV
vector 603  University.whostVideoConf.wlan[0].outputHook[0]  "thruput (bit/sec)"  ETV
vector 604  University.whostVideoConf.wlan[0].outputHook[0]  packet/sec  ETV
vector 625  University.accessPoint.wlan[0].inputHook[0]  "thruput (bit/sec)"  ETV
vector 626  University.accessPoint.wlan[0].inputHook[0]  packet/sec  ETV
vector 633  University.accessPoint.eth[0].outputHook[0]  "thruput (bit/sec)"  ETV
vector 634  University.accessPoint.eth[0].outputHook[0]  packet/sec  ETV
vector 381  University.remoteR.eth[0].inputHook[0]  "thruput (bit/sec)"  ETV
vector 382  University.remoteR.eth[0].inputHook[0]  packet/sec  ETV
vector 387  University.remoteR.ppp[0].outputHook[0]  "thruput (bit/sec)"  ETV
vector 388  University.remoteR.ppp[0].outputHook[0]  packet/sec  ETV
vector 393  University.mainR.ppp[0].inputHook[0]  "thruput (bit/sec)"  ETV
vector 394  University.mainR.ppp[0].inputHook[0]  packet/sec  ETV
vector 389  University.remoteR.ppp[0].inputHook[0]  "thruput (bit/sec)"  ETV
vector 390  University.remoteR.ppp[0].inputHook[0]  packet/sec  ETV
vector 379  University.remoteR.eth[0].outputHook[0]  "thruput (bit/sec)"  ETV
vector 380  University.remoteR.eth[0].outputHook[0]  packet/sec  ETV
vector 635  University.accessPoint.eth[0].inputHook[0]  "thruput (bit/sec)"  ETV
vector 636  University.accessPoint.eth[0].inputHook[0]  packet/sec  ETV
vector 623  University.accessPoint.wlan[0].outputHook[0]  "thruput (bit/sec)"  ETV
vector 624  University.accessPoint.wlan[0].outputHook[0]  packet/sec  ETV
vector 445  University.whttpStudents[2].wlan[0].inputHook[0]  "thruput (bit/sec)"  ETV
vector 446  University.whttpStudents[2].wlan[0].inputHook[0]  packet/sec  ETV
vector 435  University.whttpStudents[1].wlan[0].inputHook[0]  "thruput (bit/sec)"  ETV
vector 436  University.whttpStudents[1].wlan[0].inputHook[0]  packet/sec  ETV
vector 399  University.mainR.ppp[2].outputHook[0]  "thruput (bit/sec)"  ETV
vector 400  University.mainR.ppp[2].outputHook[0]  packet/sec  ETV
vector 417  University.Server.ppp[0].inputHook[0]  "thruput (bit/sec)"  ETV
vector 418  University.Server.ppp[0].inputHook[0]  packet/sec  ETV
vector 415  University.Server.ppp[0].outputHook[0]  "thruput (bit/sec)"  ETV
vector 416  University.Server.ppp[0].outputHook[0]  packet/sec  ETV
vector 401  University.mainR.ppp[2].inputHook[0]  "thruput (bit/sec)"  ETV
vector 402  University.mainR.ppp[2].inputHook[0]  packet/sec  ETV
vector 391  University.mainR.ppp[0].outputHook[0]  "thruput (bit/sec)"  ETV
vector 392  University.mainR.ppp[0].outputHook[0]  packet/sec  ETV
vector 443  University.whttpStudents[2].wlan[0].outputHook[0]  "thruput (bit/sec)"  ETV
vector 444  University.whttpStudents[2].wlan[0].outputHook[0]  packet/sec  ETV
vector 433  University.whttpStudents[1].wlan[0].outputHook[0]  "thruput (bit/sec)"  ETV
vector 434  University.whttpStudents[1].wlan[0].outputHook[0]  packet/sec  ETV
vector 198  University.whttpStudents[6].tcpApp[0]  numActiveSessions:vector  ETV
attr interpolationmode  sample-hold
attr source  sum(connect)
attr title  "number of active sessions, vector"
vector 330  University.whttpStudents[17].tcpApp[0]  numActiveSessions:vector  ETV
attr interpolationmode  sample-hold
attr source  sum(connect)
attr title  "number of active sessions, vector"
vector 162  University.whttpStudents[3].tcpApp[0]  numActiveSessions:vector  ETV
attr interpolationmode  sample-hold
attr source  sum(connect)
attr title  "number of active sessions, vector"
vector 160  University.whttpStudents[3].tcpApp[0]  sentPk:vector(packetBytes)  ETV
attr interpolationmode  none
attr source  sentPk
attr title  "packets sent, vector(packetBytes)"
vector 94  University.Server.tcpApp[0]  rcvdPk:vector(packetBytes)  ETV
attr interpolationmode  none
attr source  rcvdPk
attr title  "packets received, vector(packetBytes)"
vector 96  University.Server.tcpApp[0]  endToEndDelay:vector  ETV
attr interpolationmode  none
attr source  messageAge(rcvdPk)
attr title  "end-to-end delay, vector"
attr unit  s
vector 95  University.Server.tcpApp[0]  sentPk:vector(packetBytes)  ETV
attr interpolationmode  none
attr source  sentPk
attr title  "packets sent, vector(packetBytes)"
vector 455  University.whttpStudents[3].wlan[0].inputHook[0]  "thruput (bit/sec)"  ETV
vector 456  University.whttpStudents[3].wlan[0].inputHook[0]  packet/sec  ETV
vector 186  University.whttpStudents[5].tcpApp[0]  numActiveSessions:vector  ETV
attr interpolationmode  sample-hold
attr source  sum(connect)
attr title  "number of active sessions, vector"
vector 525  University.whttpStudents[10].wlan[0].inputHook[0]  "thruput (bit/sec)"  ETV
vector 526  University.whttpStudents[10].wlan[0].inputHook[0]  packet/sec  ETV
vector 465  University.whttpStudents[4].wlan[0].inputHook[0]  "thruput (bit/sec)"  ETV
vector 466  University.whttpStudents[4].wlan[0].inputHook[0]  packet/sec  ETV
vector 575  University.whttpStudents[15].wlan[0].inputHook[0]  "thruput (bit/sec)"  ETV
vector 576  University.whttpStudents[15].wlan[0].inputHook[0]  packet/sec  ETV
vector 615  University.whostFTP.wlan[0].inputHook[0]  "thruput (bit/sec)"  ETV
vector 616  University.whostFTP.wlan[0].inputHook[0]  packet/sec  ETV
vector 495  University.whttpStudents[7].wlan[0].inputHook[0]  "thruput (bit/sec)"  ETV
vector 496  University.whttpStudents[7].wlan[0].inputHook[0]  packet/sec  ETV
vector 565  University.whttpStudents[14].wlan[0].inputHook[0]  "thruput (bit/sec)"  ETV
vector 566  University.whttpStudents[14].wlan[0].inputHook[0]  packet/sec  ETV
vector 485  University.whttpStudents[6].wlan[0].inputHook[0]  "thruput (bit/sec)"  ETV
vector 486  University.whttpStudents[6].wlan[0].inputHook[0]  packet/sec  ETV
vector 505  University.whttpStudents[8].wlan[0].inputHook[0]  "thruput (bit/sec)"  ETV
vector 506  University.whttpStudents[8].wlan[0].inputHook[0]  packet/sec  ETV
vector 585  University.whttpStudents[16].wlan[0].inputHook[0]  "thruput (bit/sec)"  ETV
vector 586  University.whttpStudents[16].wlan[0].inputHook[0]  packet/sec  ETV
vector 605  University.whostVideoConf.wlan[0].inputHook[0]  "thruput (bit/sec)"  ETV
vector 606  University.whostVideoConf.wlan[0].inputHook[0]  packet/sec  ETV
vector 555  University.whttpStudents[13].wlan[0].inputHook[0]  "thruput (bit/sec)"  ETV
vector 556  University.whttpStudents[13].wlan[0].inputHook[0]  packet/sec  ETV
vector 425  University.whttpStudents[0].wlan[0].inputHook[0]  "thruput (bit/sec)"  ETV
vector 426  University.whttpStudents[0].wlan[0].inputHook[0]  packet/sec  ETV
vector 545  University.whttpStudents[12].wlan[0].inputHook[0]  "thruput (bit/sec)"  ETV
vector 546  University.whttpStudents[12].wlan[0].inputHook[0]  packet/sec  ETV
vector 535  University.whttpStudents[11].wlan[0].inputHook[0]  "thruput (bit/sec)"  ETV
vector 536  University.whttpStudents[11].wlan[0].inputHook[0]  packet/sec  ETV
vector 595  University.whttpStudents[17].wlan[0].inputHook[0]  "thruput (bit/sec)"  ETV
vector 596  University.whttpStudents[17].wlan[0].inputHook[0]  packet/sec  ETV
vector 515  University.whttpStudents[9].wlan[0].inputHook[0]  "thruput (bit/sec)"  ETV
vector 516  University.whttpStudents[9].wlan[0].inputHook[0]  packet/sec  ETV
vector 475  University.whttpStudents[5].wlan[0].inputHook[0]  "thruput (bit/sec)"  ETV
vector 476  University.whttpStudents[5].wlan[0].inputHook[0]  packet/sec  ETV
vector 453  University.whttpStudents[3].wlan[0].outputHook[0]  "thruput (bit/sec)"  ETV
vector 454  University.whttpStudents[3].wlan[0].outputHook[0]  packet/sec  ETV
vector 174  University.whttpStudents[4].tcpApp[0]  numActiveSessions:vector  ETV
attr interpolationmode  sample-hold
attr source  sum(connect)
attr title  "number of active sessions, vector"
vector 172  University.whttpStudents[4].tcpApp[0]  sentPk:vector(packetBytes)  ETV
attr interpolationmode  none
attr source  sentPk
attr title  "packets sent, vector(packetBytes)"
vector 483  University.whttpStudents[6].wlan[0].outputHook[0]  "thruput (bit/sec)"  ETV
vector 484  University.whttpStudents[6].wlan[0].outputHook[0]  packet/sec  ETV
vector 593  University.whttpStudents[17].wlan[0].outputHook[0]  "thruput (bit/sec)"  ETV
vector 594  University.whttpStudents[17].wlan[0].outputHook[0]  packet/sec  ETV
vector 463  University.whttpStudents[4].wlan[0].outputHook[0]  "thruput (bit/sec)"  ETV
vector 464  University.whttpStudents[4].wlan[0].outputHook[0]  packet/sec  ETV
vector 473  University.whttpStudents[5].wlan[0].outputHook[0]  "thruput (bit/sec)"  ETV
vector 474  University.whttpStudents[5].wlan[0].outputHook[0]  packet/sec  ETV
vector 306  University.whttpStudents[15].tcpApp[0]  numActiveSessions:vector  ETV
attr interpolationmode  sample-hold
attr source  sum(connect)
attr title  "number of active sessions, vector"
vector 171  University.whttpStudents[4].tcpApp[0]  rcvdPk:vector(packetBytes)  ETV
attr interpolationmode  none
attr source  rcvdPk
attr title  "packets received, vector(packetBytes)"
vector 173  University.whttpStudents[4].tcpApp[0]  endToEndDelay:vector  ETV
attr interpolationmode  none
attr source  messageAge(rcvdPk)
attr title  "end-to-end delay, vector"
attr unit  s
vector 210  University.whttpStudents[7].tcpApp[0]  numActiveSessions:vector  ETV
attr interpolationmode  sample-hold
attr source  sum(connect)
attr title  "number of active sessions, vector"
vector 294  University.whttpStudents[14].tcpApp[0]  numActiveSessions:vector  ETV
attr interpolationmode  sample-hold
attr source  sum(connect)
attr title  "number of active sessions, vector"
vector 126  University.whttpStudents[0].tcpApp[0]  numActiveSessions:vector  ETV
attr interpolationmode  sample-hold
attr source  sum(connect)
attr title  "number of active sessions, vector"
vector 124  University.whttpStudents[0].tcpApp[0]  sentPk:vector(packetBytes)  ETV
attr interpolationmode  none
attr source  sentPk
attr title  "packets sent, vector(packetBytes)"
vector 573  University.whttpStudents[15].wlan[0].outputHook[0]  "thruput (bit/sec)"  ETV
vector 574  University.whttpStudents[15].wlan[0].outputHook[0]  packet/sec  ETV
vector 423  University.whttpStudents[0].wlan[0].outputHook[0]  "thruput (bit/sec)"  ETV
vector 424  University.whttpStudents[0].wlan[0].outputHook[0]  packet/sec  ETV
vector 493  University.whttpStudents[7].wlan[0].outputHook[0]  "thruput (bit/sec)"  ETV
vector 494  University.whttpStudents[7].wlan[0].outputHook[0]  packet/sec  ETV
vector 123  University.whttpStudents[0].tcpApp[0]  rcvdPk:vector(packetBytes)  ETV
attr interpolationmode  none
attr source  rcvdPk
attr title  "packets received, vector(packetBytes)"
vector 125  University.whttpStudents[0].tcpApp[0]  endToEndDelay:vector  ETV
attr interpolationmode  none
attr source  messageAge(rcvdPk)
attr title  "end-to-end delay, vector"
attr unit  s
vector 270  University.whttpStudents[12].tcpApp[0]  numActiveSessions:vector  ETV
attr interpolationmode  sample-hold
attr source  sum(connect)
attr title  "number of active sessions, vector"
vector 246  University.whttpStudents[10].tcpApp[0]  numActiveSessions:vector  ETV
attr interpolationmode  sample-hold
attr source  sum(connect)
attr title  "number of active sessions, vector"
vector 563  University.whttpStudents[14].wlan[0].outputHook[0]  "thruput (bit/sec)"  ETV
vector 564  University.whttpStudents[14].wlan[0].outputHook[0]  packet/sec  ETV
vector 222  University.whttpStudents[8].tcpApp[0]  numActiveSessions:vector  ETV
attr interpolationmode  sample-hold
attr source  sum(connect)
attr title  "number of active sessions, vector"
vector 543  University.whttpStudents[12].wlan[0].outputHook[0]  "thruput (bit/sec)"  ETV
vector 544  University.whttpStudents[12].wlan[0].outputHook[0]  packet/sec  ETV
vector 523  University.whttpStudents[10].wlan[0].outputHook[0]  "thruput (bit/sec)"  ETV
vector 524  University.whttpStudents[10].wlan[0].outputHook[0]  packet/sec  ETV
vector 613  University.whostFTP.wlan[0].outputHook[0]  "thruput (bit/sec)"  ETV
vector 614  University.whostFTP.wlan[0].outputHook[0]  packet/sec  ETV
vector 503  University.whttpStudents[8].wlan[0].outputHook[0]  "thruput (bit/sec)"  ETV
vector 504  University.whttpStudents[8].wlan[0].outputHook[0]  packet/sec  ETV
vector 583  University.whttpStudents[16].wlan[0].outputHook[0]  "thruput (bit/sec)"  ETV
vector 584  University.whttpStudents[16].wlan[0].outputHook[0]  packet/sec  ETV
vector 282  University.whttpStudents[13].tcpApp[0]  numActiveSessions:vector  ETV
attr interpolationmode  sample-hold
attr source  sum(connect)
attr title  "number of active sessions, vector"
vector 234  University.whttpStudents[9].tcpApp[0]  numActiveSessions:vector  ETV
attr interpolationmode  sample-hold
attr source  sum(connect)
attr title  "number of active sessions, vector"
vector 258  University.whttpStudents[11].tcpApp[0]  numActiveSessions:vector  ETV
attr interpolationmode  sample-hold
attr source  sum(connect)
attr title  "number of active sessions, vector"
vector 553  University.whttpStudents[13].wlan[0].outputHook[0]  "thruput (bit/sec)"  ETV
vector 554  University.whttpStudents[13].wlan[0].outputHook[0]  packet/sec  ETV
vector 135  University.whttpStudents[1].tcpApp[0]  rcvdPk:vector(packetBytes)  ETV
attr interpolationmode  none
attr source  rcvdPk
attr title  "packets received, vector(packetBytes)"
vector 137  University.whttpStudents[1].tcpApp[0]  endToEndDelay:vector  ETV
attr interpolationmode  none
attr source  messageAge(rcvdPk)
attr title  "end-to-end delay, vector"
attr unit  s
vector 138  University.whttpStudents[1].tcpApp[0]  numActiveSessions:vector  ETV
attr interpolationmode  sample-hold
attr source  sum(connect)
attr title  "number of active sessions, vector"
vector 513  University.whttpStudents[9].wlan[0].outputHook[0]  "thruput (bit/sec)"  ETV
vector 514  University.whttpStudents[9].wlan[0].outputHook[0]  packet/sec  ETV
vector 533  University.whttpStudents[11].wlan[0].outputHook[0]  "thruput (bit/sec)"  ETV
vector 534  University.whttpStudents[11].wlan[0].outputHook[0]  packet/sec  ETV
vector 147  University.whttpStudents[2].tcpApp[0]  rcvdPk:vector(packetBytes)  ETV
attr interpolationmode  none
attr source  rcvdPk
attr title  "packets received, vector(packetBytes)"
vector 149  University.whttpStudents[2].tcpApp[0]  endToEndDelay:vector  ETV
attr interpolationmode  none
attr source  messageAge(rcvdPk)
attr title  "end-to-end delay, vector"
attr unit  s
vector 150  University.whttpStudents[2].tcpApp[0]  numActiveSessions:vector  ETV
attr interpolationmode  sample-hold
attr source  sum(connect)
attr title  "number of active sessions, vector"
vector 136  University.whttpStudents[1].tcpApp[0]  sentPk:vector(packetBytes)  ETV
attr interpolationmode  none
attr source  sentPk
attr title  "packets sent, vector(packetBytes)"
vector 148  University.whttpStudents[2].tcpApp[0]  sentPk:vector(packetBytes)  ETV
attr interpolationmode  none
attr source  sentPk
attr title  "packets sent, vector(packetBytes)"
vector 159  University.whttpStudents[3].tcpApp[0]  rcvdPk:vector(packetBytes)  ETV
attr interpolationmode  none
attr source  rcvdPk
attr title  "packets received, vector(packetBytes)"
vector 161  University.whttpStudents[3].tcpApp[0]  endToEndDelay:vector  ETV
attr interpolationmode  none
attr source  messageAge(rcvdPk)
attr title  "end-to-end delay, vector"
attr unit  s
vector 358  University.whostFTP.tcpApp[0]  numActiveSessions:vector  ETV
attr interpolationmode  sample-hold
attr source  sum(connect)
attr title  "number of active sessions, vector"
vector 318  University.whttpStudents[16].tcpApp[0]  numActiveSessions:vector  ETV
attr interpolationmode  sample-hold
attr source  sum(connect)
attr title  "number of active sessions, vector"
75	17326 4142383 447148 232060174 5.009369302954 4700.210690525813 117381 1400 1400 164333400 230066760000
76	4159709 4143859 447149 232061194 5.013279192177 4700.213279192177 117381 1400 1400 164333400 230066760000
77	8303568 5314693 447148 232060174 5.009369302954 4700.210690525813 117381 0.016345623326 0.152478932472 1944.631245905 32.38981069997
94	13618261 28540 493841 231774969 8.395191406908 4698.447766999294 888 1 1 888 888
95	13646801 33130 493841 231774969 8.395191406908 4698.447766999294 888 1221 5326236 714390298 1.1206466845935e+15
96	13679931 40082 493841 231774969 8.395191406908 4698.447766999294 888 0.077818280245 0.081316609008 69.194812497535 5.3918946924589
123	13720013 7101 1217356 231898566 16.308983604262 4699.63317904115 185 1221 4763074 140402890 2.1101962695546e+14
124	13727114 6140 1063540 231045142 14.643611417514 4686.687424671606 185 1 1 185 185
125	13733254 8593 1217356 231898566 16.308983604262 4699.63317904115 185 0.177525512303 71.325537823045 2035.1821886221 61614.450912432
126	13741847 12275 1060440 231898566 14.467974243005 4699.63317904115 370 0 1 185 185
135	13754122 7226 1655599 231780688 27.82257429033 4698.687594730546 189 1945 3874897 150466747 2.3883472889634e+14
136	13761348 6236 1719316 230747054 32.445238298453 4683.044874926554 188 1 1 188 188
137	13767584 8746 1655599 231780688 27.82257429033 4698.687594730546 189 0.354179624097 49.121470860341 1845.3924483558 50615.627619709
138	13776330 12671 1655599 231780688 27.82257429033 4698.687594730546 377 -1 0 -189 189
147	13789001 6605 1694945 230577044 29.863425577289 4670.37927297087 172 8517 5326236 150444240 2.5717205823024e+14
148	13795606 5708 1882537 231773915 38.090006227531 4698.369930642642 172 1 1 172 172
149	13801314 7986 1694945 230577044 29.863425577289 4670.37927297087 172 0.534691342628 66.627160259786 2051.7126985359 59023.406835005
150	13809300 11588 1694945 231770673 29.863425577289 4698.194084104666 344 -1 0 -172 172
159	13820888 6328 2104883 231877577 42.213777130344 4699.568429796319 165 8937 3453716 138629740 2.1371891855025e+14
160	13827216 5471 491656 231041105 8.317319126663 4686.404831184936 165 1 1 165 165
161	13832687 7660 2104883 231877577 42.213777130344 4699.568429796319 165 0.534953305181 50.052635607886 1944.2730839132 57948.129759772
162	13840347 10935 488471 231877577 8.140096979932 4699.568429796319 330 0 1 165 165
171	13851282 6810 1019935 231785592 12.069758020433 4698.851934531181 178 6857 3717271 136274647 2.0336127986235e+14
172	13858092 5884 719176 231352119 10.178324255675 4688.491919469855 178 1 1 178 178
173	13863976 8248 1019935 231785592 12.069758020433 4698.851934531181 178 0.533443008468 66.699403575228 1909.7057151645 59729.464372436
174	13872224 11786 616436 231785592 9.890833110378 4698.851934531181 356 0 1 178 178
186	13884010 1837 497142 228335313 8.647576504249 4636.213166938319 54 1 54 1485 53955
198	13885847 1798 477729 230604928 7.413844299698 4672.859545201728 53 1 53 1431 51039
210	13887645 1804 1036608 230510009 12.971799711272 4665.355435122144 53 1 53 1431 51039
222	13889449 1761 1267081 229848411 19.32819248235 4649.33075258238 52 1 52 1378 48230
234	13891210 1803 1367348 230611927 25.710164147758 4673.461528131725 53 1 53 1431 51039
246	13893013 1804 1230777 231037315 17.021547873907 4686.044134753585 53 1 53 1431 51039
258	13894817 1842 1373804 230491303 26.038580161323 4664.09274179376 54 1 54 1485 53955
270	13896659 1768 1227122 231727271 16.805263424247 4695.762465081938 52 1 52 1378 48230
282	13898427 1739 1345182 228288769 24.305250522297 4631.132530028441 51 1 51 1326 45526
294	13900166 1768 1057720 230417967 14.375320040158 4659.348787098891 52 1 52 1378 48230
306	13901934 1867 903359 229501905 11.678512663675 4647.95070442758 55 1 55 1540 56980
318	13903801 1809 5294614 231695373 81.507825765961 4694.007552866713 53 1 53 1431 51039
330	13905610 1768 482833 230452515 7.744013644614 4661.520497626162 52 1 52 1378 48230
340	13907378 4261242 447196 232068634 5.033023679628 4700.233023679628 117381 1400 1400 164333400 230066760000
358	18168620 1313 5040923 229930357 75 4650 62 1 62 1953 81375
379	18169933 196343 464028 231938283 5.305687856256 4698.851600310015 4169 50.605267307462 10052565.879749 5603472983.595 2.5931174635765e+16
380	18366276 196056 464028 231938283 5.305687856256 4698.851600310015 4169 0.15814146033582 837.71382331244 470871.46852888 181101567.93428
381	18562332 190271 461007 232069329 5.073676039967 4699.234099414803 4675 277385.2234212 553417.90033436 1494969543.8692 4.9203968725099e+14
382	18752603 177238 461007 232069329 5.073676039967 4699.234099414803 4675 24.9995500081 853 615258.8724203 215592509.05352
387	18929841 190268 461009 232069331 5.073676039967 4699.234099414803 4675 277385.2234212 553417.90033436 1494925792.103 4.9201171820342e+14
388	19120109 177189 461009 231814471 5.073676039967 4698.233412636288 4674 24.9995500081 853 614425.02210222 215133586.1588
389	19297298 196343 464026 231938281 5.305687856256 4698.851600310015 4169 50.605267307462 10052565.879749 5603351037.0681 2.5930912056558e+16
390	19493641 196066 464026 231938281 5.305687856256 4698.851600310015 4169 0.15814146033582 837.71382331244 470679.18114097 181062464.51799
391	19689707 195386 466242 231837340 5.472044718917 4698.307221687976 4150 50.605288648245 12554929.938783 5983009032.3466 3.312743048218e+16
392	19885093 195096 466242 231837340 5.472044718917 4698.307221687976 4150 0.15814152702577 1048.1422898912 502347.35175072 231135804.07973
393	20080189 190195 461077 231818427 5.084632706633 4698.244369302954 4674 277392.97273691 553926.1264739 1494440992.935 4.9178421140376e+14
394	20270384 177132 461077 231818427 5.084632706633 4698.244369302954 4674 24.9995500081 853 614412.17551903 215135636.6591
395	20447516 179833 459940 231987227 5.018279192177 4699.018279192177 4695 285376 308224 1393476000 4.1358498187776e+14
396	20627349 161053 459940 231987227 5.018279192177 4699.018279192177 4695 49 51 234750 11737510
397	20788402 179833 459937 231987224 5.018279192177 4699.018279192177 4695 285600 285600 1340892000 3.829587552e+14
398	20968235 161053 459937 231987224 5.018279192177 4699.018279192177 4695 25 25 117375 2934375
399	21129288 203279 465237 231838748 5.316517195534 4698.329055650306 4315 132.52173951958 248934.51670994 156427740.94231 18436319500253
400	21332567 203233 465237 231838748 5.316517195534 4698.329055650306 4315 0.41413043599869 776.92046707754 485453.7457445 179254252.46274
401	21535800 200950 466240 231837338 5.472044718917 4698.307221687976 4270 128 12229714.695093 6042485513.9192 3.3151590006835e+16
402	21736750 200911 466240 231837338 5.472044718917 4698.307221687976 4270 0.33333333333333 1021.0021530519 513360.98471091 232755118.4567
411	21937661 179832 459437 231985400 5.013279192177 4699.013279192177 4695 285600 285600 1340892000 3.829587552e+14
412	22117493 161052 459437 231985400 5.013279192177 4699.013279192177 4695 25 25 117375 2934375
413	22278545 179833 460557 231989240 5.023279192177 4699.023279192177 4695 285376 308224 1393476000 4.1358498187776e+14
414	22458378 161053 460557 231989240 5.023279192177 4699.023279192177 4695 49 51 234750 11737510
415	22619431 201023 465678 231835648 5.383529563268 4698.218706532327 4270 128 18781551.444226 6170892790.6671 3.4874319464891e+16
416	22820454 200953 465678 231835648 5.383529563268 4698.218706532327 4270 0.33333333333333 1567.3555716676 524069.02584867 244803520.42834
417	23021407 203166 465674 231863712 5.383529563268 4698.39606801804 4315 132.52170439557 248934.51670994 156427740.50939 18436319284808
418	23224573 203116 465674 231863712 5.383529563268 4698.39606801804 4315 0.41413032623614 776.92046707754 485453.74417881 179254250.28443
423	23427689 93772 1084102 231838122 14.467974243005 4698.335932929907 1985 3.5550709624265 199882.11745665 26568181.330529 2843966769784.8
424	23521461 93860 1084102 231838122 14.467974243005 4698.335932929907 1985 0.011109596757583 624.63161705202 82997.511168476 27772020.475072
425	23615321 95955 497441 231878448 7.415004351769 4698.513294451082 2033 5.28255910282 7810938.4940445 928743838.0876 4.139314419746e+15
426	23711276 96187 497441 231878448 7.415004351769 4698.513294451082 2033 0.023582853137589 650.91154117037 77985.438497158 28796721.908677
433	23807463 87261 471406 231786863 5.840787095861 4697.800787095861 1854 5.5727588205616 216522.40798858 28043725.21095 3156042586016.8
434	23894724 87408 471406 231786863 5.840787095861 4697.800787095861 1854 0.017414871314255 676.63252496431 87607.589155938 30820520.025763
435	23982132 88207 464579 231766194 5.30870251505 4696.913942738065 1889 4.5099014259378 8199001.9888341 984572305.36361 4.5298319168884e+15
436	24070339 89087 464579 231766194 5.30870251505 4696.913942738065 1889 0.020133488508651 683.25016573618 82648.195414775 31516532.214431
443	24159426 94101 471038 231829735 5.838180607209 4698.194084104666 1999 4.7351879734589 218430.99384605 28909995.296231 3156106016155
444	24253527 94208 471038 231829735 5.838180607209 4698.194084104666 1999 0.014797462417059 682.5968557689 90317.559593741 30820448.073216
445	24347735 95987 464116 231863615 5.306096019228 4698.369930642642 2038 5.3186659049773 9124012.3982819 1011696076.1644 4.5544549779002e+15
446	24443722 96132 464116 231863615 5.306096019228 4698.369930642642 2038 0.023744044218649 760.33436652349 84876.845374429 31678536.230362
453	24539854 91927 510934 231795874 8.140096979932 4697.97358206415 1952 4.7081877879379 182483.97277429 26751791.381024 2869623802181.6
454	24631781 91990 510934 231795874 8.140096979932 4697.97358206415 1952 0.014713086837306 570.26241491966 83574.291647211 28022913.889165
455	24723771 93629 494504 231810065 7.415004330376 4698.150943542539 1988 5.5339345572713 7835628.5669547 926854381.49517 4.2166956846986e+15
456	24817400 93740 494504 231810065 7.415004330376 4698.150943542539 1988 0.024705064987818 652.96904724622 77786.475984049 29337564.021418
463	24911140 89115 845825 231785595 9.890833110378 4697.786550038668 1890 3.4025074102648 204928.65562886 25577033.213494 2731088272054.3
464	25000255 89194 845825 231785595 9.890833110378 4697.786550038668 1890 0.010632835657078 640.4020488402 79901.198488696 26669916.805925
465	25089449 91404 497379 231768321 7.415004334038 4697.077104095816 1940 4.400592338054 9622924.5920815 890015086.88437 3.9082266625427e+15
466	25180853 91572 497379 231768321 7.415004334038 4697.077104095816 1940 0.01964550150917 801.91038267345 74728.367429148 27189997.973718
473	25272425 9966 902490 230728675 8.647576504249 4657.213166938319 269 5.5348637984487 202.66666666667 13544.407844351 1204867.2069639
474	25282391 13132 902490 230728675 8.647576504249 4657.213166938319 269 0.01441370780846 0.66666666666667 35.410784316887 8.3369237547885
475	25295523 8447 497533 231787241 7.415004346056 4656.416310725197 180 2.6841798769496 544.63573312583 5330.5382340951 716821.36606396
476	25303970 8744 497533 231787241 7.415004346056 4656.416310725197 180 0.011982945879239 2.4314095228832 23.797045687925 14.286140108099
483	25312714 9714 807433 231692176 7.413844299698 4681.859545201728 263 3.9854761321506 202.66666666667 13263.264467585 1182517.8020943
484	25322428 12820 807433 231692176 7.413844299698 4681.859545201728 263 0.010378844094142 0.66666666666667 34.678640106557 8.1853571527542
485	25335248 8447 497409 231787235 7.415115346046 4656.416310725187 180 2.6841798769496 544.73771812243 5330.6228270871 716926.19840544
486	25343695 8744 497409 231787235 7.415115346046 4656.416310725187 180 0.011982945879239 2.4318648130466 23.79742333521 14.288229400619
493	25352439 9734 1134687 231040537 12.971799711272 4674.355435122144 263 4.8718002926206 202.66666666667 13257.640019443 1182373.886065
494	25362173 12834 1134687 231040537 12.971799711272 4674.355435122144 263 0.012686979928699 0.66666666666667 34.663993106188 8.1843811597171
495	25375007 8450 497397 231787223 7.415004340271 4656.416310719412 180 2.6841798769496 544.68870757825 5330.5637427823 716867.77363733
496	25383457 8747 497397 231787223 7.415004340271 4656.416310719412 180 0.011982945879239 2.4316460159743 23.797159565992 14.287065003933
503	25392204 9538 1314708 231701538 19.32819248235 4670.33075258238 259 3.4526508691985 202.66666666667 13017.612207809 1160645.4006905
504	25401742 12596 1314708 231701538 19.32819248235 4670.33075258238 259 0.0089912783052044 0.66666666666667 34.038920680058 8.037025437505
505	25414338 8456 497417 231787247 7.415004347809 4656.41631072695 180 2.6841798769496 544.68870757825 5330.5697682169 716871.20907375