file 34343154 1471547965                                        
version 2
run _27off-7-20160818-19:15:14-21764
attr configname _27off
attr datetime 20160818-19:15:14
attr experiment _27off
attr inifile omnetpp.ini
attr iterationvars ""
attr iterationvars2 $repetition=7
attr measurement ""
attr network University
attr processid 21764
attr repetition 7
attr replication #7
attr resultdir results
attr runnumber 7
attr seedset 7

vector 466  University.whostFTP.tcpApp[0]  numActiveSessions:vector  ETV
attr interpolationmode  sample-hold
attr source  sum(connect)
attr title  "number of active sessions, vector"
vector 448  University.whostVideoConf.udpApp[0]  sentPk:vector(packetBytes)  ETV
attr interpolationmode  none
attr source  sentPk
attr title  "packets sent, vector(packetBytes)"
vector 76  University.profLaptop.udpApp[0]  sentPk:vector(packetBytes)  ETV
attr interpolationmode  none
attr source  sentPk
attr title  "packets sent, vector(packetBytes)"
vector 174  University.whttpStudents[4].tcpApp[0]  numActiveSessions:vector  ETV
attr interpolationmode  sample-hold
attr source  sum(connect)
attr title  "number of active sessions, vector"
vector 258  University.whttpStudents[11].tcpApp[0]  numActiveSessions:vector  ETV
attr interpolationmode  sample-hold
attr source  sum(connect)
attr title  "number of active sessions, vector"
vector 447  University.whostVideoConf.udpApp[0]  rcvdPk:vector(packetBytes)  ETV
attr interpolationmode  none
attr source  rcvdPk
attr title  "packets received, vector(packetBytes)"
vector 449  University.whostVideoConf.udpApp[0]  rcvdPkLifetime:vector  ETV
attr interpolationmode  none
attr source  messageAge(rcvdPk)
attr title  "received packet lifetime, vector"
attr unit  s
vector 210  University.whttpStudents[7].tcpApp[0]  numActiveSessions:vector  ETV
attr interpolationmode  sample-hold
attr source  sum(connect)
attr title  "number of active sessions, vector"
vector 464  University.whostFTP.tcpApp[0]  sentPk:vector(packetBytes)  ETV
attr interpolationmode  none
attr source  sentPk
attr title  "packets sent, vector(packetBytes)"
vector 75  University.profLaptop.udpApp[0]  rcvdPk:vector(packetBytes)  ETV
attr interpolationmode  none
attr source  rcvdPk
attr title  "packets received, vector(packetBytes)"
vector 77  University.profLaptop.udpApp[0]  rcvdPkLifetime:vector  ETV
attr interpolationmode  none
attr source  messageAge(rcvdPk)
attr title  "received packet lifetime, vector"
attr unit  s
vector 208  University.whttpStudents[7].tcpApp[0]  sentPk:vector(packetBytes)  ETV
attr interpolationmode  none
attr source  sentPk
attr title  "packets sent, vector(packetBytes)"
vector 94  University.Server.tcpApp[0]  rcvdPk:vector(packetBytes)  ETV
attr interpolationmode  none
attr source  rcvdPk
attr title  "packets received, vector(packetBytes)"
vector 96  University.Server.tcpApp[0]  endToEndDelay:vector  ETV
attr interpolationmode  none
attr source  messageAge(rcvdPk)
attr title  "end-to-end delay, vector"
attr unit  s
vector 95  University.Server.tcpApp[0]  sentPk:vector(packetBytes)  ETV
attr interpolationmode  none
attr source  sentPk
attr title  "packets sent, vector(packetBytes)"
vector 162  University.whttpStudents[3].tcpApp[0]  numActiveSessions:vector  ETV
attr interpolationmode  sample-hold
attr source  sum(connect)
attr title  "number of active sessions, vector"
vector 160  University.whttpStudents[3].tcpApp[0]  sentPk:vector(packetBytes)  ETV
attr interpolationmode  none
attr source  sentPk
attr title  "packets sent, vector(packetBytes)"
vector 172  University.whttpStudents[4].tcpApp[0]  sentPk:vector(packetBytes)  ETV
attr interpolationmode  none
attr source  sentPk
attr title  "packets sent, vector(packetBytes)"
vector 342  University.whttpStudents[18].tcpApp[0]  numActiveSessions:vector  ETV
attr interpolationmode  sample-hold
attr source  sum(connect)
attr title  "number of active sessions, vector"
vector 340  University.whttpStudents[18].tcpApp[0]  sentPk:vector(packetBytes)  ETV
attr interpolationmode  none
attr source  sentPk
attr title  "packets sent, vector(packetBytes)"
vector 306  University.whttpStudents[15].tcpApp[0]  numActiveSessions:vector  ETV
attr interpolationmode  sample-hold
attr source  sum(connect)
attr title  "number of active sessions, vector"
vector 414  University.whttpStudents[24].tcpApp[0]  numActiveSessions:vector  ETV
attr interpolationmode  sample-hold
attr source  sum(connect)
attr title  "number of active sessions, vector"
vector 304  University.whttpStudents[15].tcpApp[0]  sentPk:vector(packetBytes)  ETV
attr interpolationmode  none
attr source  sentPk
attr title  "packets sent, vector(packetBytes)"
vector 256  University.whttpStudents[11].tcpApp[0]  sentPk:vector(packetBytes)  ETV
attr interpolationmode  none
attr source  sentPk
attr title  "packets sent, vector(packetBytes)"
vector 255  University.whttpStudents[11].tcpApp[0]  rcvdPk:vector(packetBytes)  ETV
attr interpolationmode  none
attr source  rcvdPk
attr title  "packets received, vector(packetBytes)"
vector 257  University.whttpStudents[11].tcpApp[0]  endToEndDelay:vector  ETV
attr interpolationmode  none
attr source  messageAge(rcvdPk)
attr title  "end-to-end delay, vector"
attr unit  s
vector 207  University.whttpStudents[7].tcpApp[0]  rcvdPk:vector(packetBytes)  ETV
attr interpolationmode  none
attr source  rcvdPk
attr title  "packets received, vector(packetBytes)"
vector 209  University.whttpStudents[7].tcpApp[0]  endToEndDelay:vector  ETV
attr interpolationmode  none
attr source  messageAge(rcvdPk)
attr title  "end-to-end delay, vector"
attr unit  s
vector 234  University.whttpStudents[9].tcpApp[0]  numActiveSessions:vector  ETV
attr interpolationmode  sample-hold
attr source  sum(connect)
attr title  "number of active sessions, vector"
vector 232  University.whttpStudents[9].tcpApp[0]  sentPk:vector(packetBytes)  ETV
attr interpolationmode  none
attr source  sentPk
attr title  "packets sent, vector(packetBytes)"
vector 282  University.whttpStudents[13].tcpApp[0]  numActiveSessions:vector  ETV
attr interpolationmode  sample-hold
attr source  sum(connect)
attr title  "number of active sessions, vector"
vector 280  University.whttpStudents[13].tcpApp[0]  sentPk:vector(packetBytes)  ETV
attr interpolationmode  none
attr source  sentPk
attr title  "packets sent, vector(packetBytes)"
vector 159  University.whttpStudents[3].tcpApp[0]  rcvdPk:vector(packetBytes)  ETV
attr interpolationmode  none
attr source  rcvdPk
attr title  "packets received, vector(packetBytes)"
vector 161  University.whttpStudents[3].tcpApp[0]  endToEndDelay:vector  ETV
attr interpolationmode  none
attr source  messageAge(rcvdPk)
attr title  "end-to-end delay, vector"
attr unit  s
vector 270  University.whttpStudents[12].tcpApp[0]  numActiveSessions:vector  ETV
attr interpolationmode  sample-hold
attr source  sum(connect)
attr title  "number of active sessions, vector"
vector 268  University.whttpStudents[12].tcpApp[0]  sentPk:vector(packetBytes)  ETV
attr interpolationmode  none
attr source  sentPk
attr title  "packets sent, vector(packetBytes)"
vector 150  University.whttpStudents[2].tcpApp[0]  numActiveSessions:vector  ETV
attr interpolationmode  sample-hold
attr source  sum(connect)
attr title  "number of active sessions, vector"
vector 148  University.whttpStudents[2].tcpApp[0]  sentPk:vector(packetBytes)  ETV
attr interpolationmode  none
attr source  sentPk
attr title  "packets sent, vector(packetBytes)"
vector 412  University.whttpStudents[24].tcpApp[0]  sentPk:vector(packetBytes)  ETV
attr interpolationmode  none
attr source  sentPk
attr title  "packets sent, vector(packetBytes)"
vector 438  University.whttpStudents[26].tcpApp[0]  numActiveSessions:vector  ETV
attr interpolationmode  sample-hold
attr source  sum(connect)
attr title  "number of active sessions, vector"
vector 279  University.whttpStudents[13].tcpApp[0]  rcvdPk:vector(packetBytes)  ETV
attr interpolationmode  none
attr source  rcvdPk
attr title  "packets received, vector(packetBytes)"
vector 281  University.whttpStudents[13].tcpApp[0]  endToEndDelay:vector  ETV
attr interpolationmode  none
attr source  messageAge(rcvdPk)
attr title  "end-to-end delay, vector"
attr unit  s
vector 436  University.whttpStudents[26].tcpApp[0]  sentPk:vector(packetBytes)  ETV
attr interpolationmode  none
attr source  sentPk
attr title  "packets sent, vector(packetBytes)"
vector 402  University.whttpStudents[23].tcpApp[0]  numActiveSessions:vector  ETV
attr interpolationmode  sample-hold
attr source  sum(connect)
attr title  "number of active sessions, vector"
vector 411  University.whttpStudents[24].tcpApp[0]  rcvdPk:vector(packetBytes)  ETV
attr interpolationmode  none
attr source  rcvdPk
attr title  "packets received, vector(packetBytes)"
vector 413  University.whttpStudents[24].tcpApp[0]  endToEndDelay:vector  ETV
attr interpolationmode  none
attr source  messageAge(rcvdPk)
attr title  "end-to-end delay, vector"
attr unit  s
vector 400  University.whttpStudents[23].tcpApp[0]  sentPk:vector(packetBytes)  ETV
attr interpolationmode  none
attr source  sentPk
attr title  "packets sent, vector(packetBytes)"
vector 198  University.whttpStudents[6].tcpApp[0]  numActiveSessions:vector  ETV
attr interpolationmode  sample-hold
attr source  sum(connect)
attr title  "number of active sessions, vector"
vector 303  University.whttpStudents[15].tcpApp[0]  rcvdPk:vector(packetBytes)  ETV
attr interpolationmode  none
attr source  rcvdPk
attr title  "packets received, vector(packetBytes)"
vector 305  University.whttpStudents[15].tcpApp[0]  endToEndDelay:vector  ETV
attr interpolationmode  none
attr source  messageAge(rcvdPk)
attr title  "end-to-end delay, vector"
attr unit  s
vector 171  University.whttpStudents[4].tcpApp[0]  rcvdPk:vector(packetBytes)  ETV
attr interpolationmode  none
attr source  rcvdPk
attr title  "packets received, vector(packetBytes)"
vector 173  University.whttpStudents[4].tcpApp[0]  endToEndDelay:vector  ETV
attr interpolationmode  none
attr source  messageAge(rcvdPk)
attr title  "end-to-end delay, vector"
attr unit  s
vector 378  University.whttpStudents[21].tcpApp[0]  numActiveSessions:vector  ETV
attr interpolationmode  sample-hold
attr source  sum(connect)
attr title  "number of active sessions, vector"
vector 376  University.whttpStudents[21].tcpApp[0]  sentPk:vector(packetBytes)  ETV
attr interpolationmode  none
attr source  sentPk
attr title  "packets sent, vector(packetBytes)"
vector 97  University.Server.tcpApp[1]  rcvdPk:vector(packetBytes)  ETV
attr interpolationmode  none
attr source  rcvdPk
attr title  "packets received, vector(packetBytes)"
vector 99  University.Server.tcpApp[1]  endToEndDelay:vector  ETV
attr interpolationmode  none
attr source  messageAge(rcvdPk)
attr title  "end-to-end delay, vector"
attr unit  s
vector 98  University.Server.tcpApp[1]  sentPk:vector(packetBytes)  ETV
attr interpolationmode  none
attr source  sentPk
attr title  "packets sent, vector(packetBytes)"
vector 463  University.whostFTP.tcpApp[0]  rcvdPk:vector(packetBytes)  ETV
attr interpolationmode  none
attr source  rcvdPk
attr title  "packets received, vector(packetBytes)"
vector 465  University.whostFTP.tcpApp[0]  endToEndDelay:vector  ETV
attr interpolationmode  none
attr source  messageAge(rcvdPk)
attr title  "end-to-end delay, vector"
attr unit  s
vector 196  University.whttpStudents[6].tcpApp[0]  sentPk:vector(packetBytes)  ETV
attr interpolationmode  none
attr source  sentPk
attr title  "packets sent, vector(packetBytes)"
vector 318  University.whttpStudents[16].tcpApp[0]  numActiveSessions:vector  ETV
attr interpolationmode  sample-hold
attr source  sum(connect)
attr title  "number of active sessions, vector"
vector 147  University.whttpStudents[2].tcpApp[0]  rcvdPk:vector(packetBytes)  ETV
attr interpolationmode  none
attr source  rcvdPk
attr title  "packets received, vector(packetBytes)"
vector 149  University.whttpStudents[2].tcpApp[0]  endToEndDelay:vector  ETV
attr interpolationmode  none
attr source  messageAge(rcvdPk)
attr title  "end-to-end delay, vector"
attr unit  s
vector 316  University.whttpStudents[16].tcpApp[0]  sentPk:vector(packetBytes)  ETV
attr interpolationmode  none
attr source  sentPk
attr title  "packets sent, vector(packetBytes)"
vector 390  University.whttpStudents[22].tcpApp[0]  numActiveSessions:vector  ETV
attr interpolationmode  sample-hold
attr source  sum(connect)
attr title  "number of active sessions, vector"
vector 388  University.whttpStudents[22].tcpApp[0]  sentPk:vector(packetBytes)  ETV
attr interpolationmode  none
attr source  sentPk
attr title  "packets sent, vector(packetBytes)"
vector 426  University.whttpStudents[25].tcpApp[0]  numActiveSessions:vector  ETV
attr interpolationmode  sample-hold
attr source  sum(connect)
attr title  "number of active sessions, vector"
vector 231  University.whttpStudents[9].tcpApp[0]  rcvdPk:vector(packetBytes)  ETV
attr interpolationmode  none
attr source  rcvdPk
attr title  "packets received, vector(packetBytes)"
vector 233  University.whttpStudents[9].tcpApp[0]  endToEndDelay:vector  ETV
attr interpolationmode  none
attr source  messageAge(rcvdPk)
attr title  "end-to-end delay, vector"
attr unit  s
vector 424  University.whttpStudents[25].tcpApp[0]  sentPk:vector(packetBytes)  ETV
attr interpolationmode  none
attr source  sentPk
attr title  "packets sent, vector(packetBytes)"
vector 195  University.whttpStudents[6].tcpApp[0]  rcvdPk:vector(packetBytes)  ETV
attr interpolationmode  none
attr source  rcvdPk
attr title  "packets received, vector(packetBytes)"
vector 197  University.whttpStudents[6].tcpApp[0]  endToEndDelay:vector  ETV
attr interpolationmode  none
attr source  messageAge(rcvdPk)
attr title  "end-to-end delay, vector"
attr unit  s
vector 399  University.whttpStudents[23].tcpApp[0]  rcvdPk:vector(packetBytes)  ETV
attr interpolationmode  none
attr source  rcvdPk
attr title  "packets received, vector(packetBytes)"
vector 401  University.whttpStudents[23].tcpApp[0]  endToEndDelay:vector  ETV
attr interpolationmode  none
attr source  messageAge(rcvdPk)
attr title  "end-to-end delay, vector"
attr unit  s
vector 387  University.whttpStudents[22].tcpApp[0]  rcvdPk:vector(packetBytes)  ETV
attr interpolationmode  none
attr source  rcvdPk
attr title  "packets received, vector(packetBytes)"
vector 389  University.whttpStudents[22].tcpApp[0]  endToEndDelay:vector  ETV
attr interpolationmode  none
attr source  messageAge(rcvdPk)
attr title  "end-to-end delay, vector"
attr unit  s
vector 354  University.whttpStudents[19].tcpApp[0]  numActiveSessions:vector  ETV
attr interpolationmode  sample-hold
attr source  sum(connect)
attr title  "number of active sessions, vector"
vector 352  University.whttpStudents[19].tcpApp[0]  sentPk:vector(packetBytes)  ETV
attr interpolationmode  none
attr source  sentPk
attr title  "packets sent, vector(packetBytes)"
vector 267  University.whttpStudents[12].tcpApp[0]  rcvdPk:vector(packetBytes)  ETV
attr interpolationmode  none
attr source  rcvdPk
attr title  "packets received, vector(packetBytes)"
vector 269  University.whttpStudents[12].tcpApp[0]  endToEndDelay:vector  ETV
attr interpolationmode  none
attr source  messageAge(rcvdPk)
attr title  "end-to-end delay, vector"
attr unit  s
vector 351  University.whttpStudents[19].tcpApp[0]  rcvdPk:vector(packetBytes)  ETV
attr interpolationmode  none
attr source  rcvdPk
attr title  "packets received, vector(packetBytes)"
vector 353  University.whttpStudents[19].tcpApp[0]  endToEndDelay:vector  ETV
attr interpolationmode  none
attr source  messageAge(rcvdPk)
attr title  "end-to-end delay, vector"
attr unit  s
vector 375  University.whttpStudents[21].tcpApp[0]  rcvdPk:vector(packetBytes)  ETV
attr interpolationmode  none
attr source  rcvdPk
attr title  "packets received, vector(packetBytes)"
vector 377  University.whttpStudents[21].tcpApp[0]  endToEndDelay:vector  ETV
attr interpolationmode  none
attr source  messageAge(rcvdPk)
attr title  "end-to-end delay, vector"
attr unit  s
vector 435  University.whttpStudents[26].tcpApp[0]  rcvdPk:vector(packetBytes)  ETV
attr interpolationmode  none
attr source  rcvdPk
attr title  "packets received, vector(packetBytes)"
vector 437  University.whttpStudents[26].tcpApp[0]  endToEndDelay:vector  ETV
attr interpolationmode  none
attr source  messageAge(rcvdPk)
attr title  "end-to-end delay, vector"
attr unit  s
vector 330  University.whttpStudents[17].tcpApp[0]  numActiveSessions:vector  ETV
attr interpolationmode  sample-hold
attr source  sum(connect)
attr title  "number of active sessions, vector"
vector 328  University.whttpStudents[17].tcpApp[0]  sentPk:vector(packetBytes)  ETV
attr interpolationmode  none
attr source  sentPk
attr title  "packets sent, vector(packetBytes)"
vector 222  University.whttpStudents[8].tcpApp[0]  numActiveSessions:vector  ETV
attr interpolationmode  sample-hold
attr source  sum(connect)
attr title  "number of active sessions, vector"
vector 186  University.whttpStudents[5].tcpApp[0]  numActiveSessions:vector  ETV
attr interpolationmode  sample-hold
attr source  sum(connect)
attr title  "number of active sessions, vector"
vector 184  University.whttpStudents[5].tcpApp[0]  sentPk:vector(packetBytes)  ETV
attr interpolationmode  none
attr source  sentPk
attr title  "packets sent, vector(packetBytes)"
vector 315  University.whttpStudents[16].tcpApp[0]  rcvdPk:vector(packetBytes)  ETV
attr interpolationmode  none
attr source  rcvdPk
attr title  "packets received, vector(packetBytes)"
vector 317  University.whttpStudents[16].tcpApp[0]  endToEndDelay:vector  ETV
attr interpolationmode  none
attr source  messageAge(rcvdPk)
attr title  "end-to-end delay, vector"
attr unit  s
vector 339  University.whttpStudents[18].tcpApp[0]  rcvdPk:vector(packetBytes)  ETV
attr interpolationmode  none
attr source  rcvdPk
attr title  "packets received, vector(packetBytes)"
vector 341  University.whttpStudents[18].tcpApp[0]  endToEndDelay:vector  ETV
attr interpolationmode  none
attr source  messageAge(rcvdPk)
attr title  "end-to-end delay, vector"
attr unit  s
vector 220  University.whttpStudents[8].tcpApp[0]  sentPk:vector(packetBytes)  ETV
attr interpolationmode  none
attr source  sentPk
attr title  "packets sent, vector(packetBytes)"
vector 423  University.whttpStudents[25].tcpApp[0]  rcvdPk:vector(packetBytes)  ETV
attr interpolationmode  none
attr source  rcvdPk
attr title  "packets received, vector(packetBytes)"
vector 425  University.whttpStudents[25].tcpApp[0]  endToEndDelay:vector  ETV
attr interpolationmode  none
attr source  messageAge(rcvdPk)
attr title  "end-to-end delay, vector"
attr unit  s
vector 219  University.whttpStudents[8].tcpApp[0]  rcvdPk:vector(packetBytes)  ETV
attr interpolationmode  none
attr source  rcvdPk
attr title  "packets received, vector(packetBytes)"
vector 221  University.whttpStudents[8].tcpApp[0]  endToEndDelay:vector  ETV
attr interpolationmode  none
attr source  messageAge(rcvdPk)
attr title  "end-to-end delay, vector"
attr unit  s
vector 183  University.whttpStudents[5].tcpApp[0]  rcvdPk:vector(packetBytes)  ETV
attr interpolationmode  none
attr source  rcvdPk
attr title  "packets received, vector(packetBytes)"
vector 185  University.whttpStudents[5].tcpApp[0]  endToEndDelay:vector  ETV
attr interpolationmode  none
attr source  messageAge(rcvdPk)
attr title  "end-to-end delay, vector"
attr unit  s
vector 327  University.whttpStudents[17].tcpApp[0]  rcvdPk:vector(packetBytes)  ETV
attr interpolationmode  none
attr source  rcvdPk
attr title  "packets received, vector(packetBytes)"
vector 329  University.whttpStudents[17].tcpApp[0]  endToEndDelay:vector  ETV
attr interpolationmode  none
attr source  messageAge(rcvdPk)
attr title  "end-to-end delay, vector"
attr unit  s
vector 294  University.whttpStudents[14].tcpApp[0]  numActiveSessions:vector  ETV
attr interpolationmode  sample-hold
attr source  sum(connect)
attr title  "number of active sessions, vector"
vector 292  University.whttpStudents[14].tcpApp[0]  sentPk:vector(packetBytes)  ETV
attr interpolationmode  none
attr source  sentPk
attr title  "packets sent, vector(packetBytes)"
vector 291  University.whttpStudents[14].tcpApp[0]  rcvdPk:vector(packetBytes)  ETV
attr interpolationmode  none
attr source  rcvdPk
attr title  "packets received, vector(packetBytes)"
vector 293  University.whttpStudents[14].tcpApp[0]  endToEndDelay:vector  ETV
attr interpolationmode  none
attr source  messageAge(rcvdPk)
attr title  "end-to-end delay, vector"
attr unit  s
vector 246  University.whttpStudents[10].tcpApp[0]  numActiveSessions:vector  ETV
attr interpolationmode  sample-hold
attr source  sum(connect)
attr title  "number of active sessions, vector"
vector 244  University.whttpStudents[10].tcpApp[0]  sentPk:vector(packetBytes)  ETV
attr interpolationmode  none
attr source  sentPk
attr title  "packets sent, vector(packetBytes)"
vector 243  University.whttpStudents[10].tcpApp[0]  rcvdPk:vector(packetBytes)  ETV
attr interpolationmode  none
attr source  rcvdPk
attr title  "packets received, vector(packetBytes)"
vector 245  University.whttpStudents[10].tcpApp[0]  endToEndDelay:vector  ETV
attr interpolationmode  none
attr source  messageAge(rcvdPk)
attr title  "end-to-end delay, vector"
attr unit  s
vector 366  University.whttpStudents[20].tcpApp[0]  numActiveSessions:vector  ETV
attr interpolationmode  sample-hold
attr source  sum(connect)
attr title  "number of active sessions, vector"
vector 364  University.whttpStudents[20].tcpApp[0]  sentPk:vector(packetBytes)  ETV
attr interpolationmode  none
attr source  sentPk
attr title  "packets sent, vector(packetBytes)"
vector 363  University.whttpStudents[20].tcpApp[0]  rcvdPk:vector(packetBytes)  ETV
attr interpolationmode  none
attr source  rcvdPk
attr title  "packets received, vector(packetBytes)"
vector 365  University.whttpStudents[20].tcpApp[0]  endToEndDelay:vector  ETV
attr interpolationmode  none
attr source  messageAge(rcvdPk)
attr title  "end-to-end delay, vector"
attr unit  s
vector 138  University.whttpStudents[1].tcpApp[0]  numActiveSessions:vector  ETV
attr interpolationmode  sample-hold
attr source  sum(connect)
attr title  "number of active sessions, vector"
vector 136  University.whttpStudents[1].tcpApp[0]  sentPk:vector(packetBytes)  ETV
attr interpolationmode  none
attr source  sentPk
attr title  "packets sent, vector(packetBytes)"
vector 126  University.whttpStudents[0].tcpApp[0]  numActiveSessions:vector  ETV
attr interpolationmode  sample-hold
attr source  sum(connect)
attr title  "number of active sessions, vector"
vector 135  University.whttpStudents[1].tcpApp[0]  rcvdPk:vector(packetBytes)  ETV
attr interpolationmode  none
attr source  rcvdPk
attr title  "packets received, vector(packetBytes)"
vector 137  University.whttpStudents[1].tcpApp[0]  endToEndDelay:vector  ETV
attr interpolationmode  none
attr source  messageAge(rcvdPk)
attr title  "end-to-end delay, vector"
attr unit  s
vector 124  University.whttpStudents[0].tcpApp[0]  sentPk:vector(packetBytes)  ETV
attr interpolationmode  none
attr source  sentPk
attr title  "packets sent, vector(packetBytes)"
vector 123  University.whttpStudents[0].tcpApp[0]  rcvdPk:vector(packetBytes)  ETV
attr interpolationmode  none
attr source  rcvdPk
attr title  "packets received, vector(packetBytes)"
vector 125  University.whttpStudents[0].tcpApp[0]  endToEndDelay:vector  ETV
attr interpolationmode  none
attr source  messageAge(rcvdPk)
attr title  "end-to-end delay, vector"
attr unit  s
75	23402 3965646 69903 2031741706 1.048410601171 4396.87742180753 109844 1400 1400 153781600 215294240000
76	3989048 3979429 123 2031739027 0.031196751827 4396.871196751827 109922 1400 1400 153890800 215447120000
77	7968477 5053191 69903 2031741706 1.048410601171 4396.87742180753 109844 0.016345614565 1.03359655795 2013.3651440017 48.58269857916
94	13021668 179712 73598 2030508639 1.086481127814 4394.411792766683 5431 1 1 5431 5431
95	13201380 207744 73598 2030508639 1.086481127814 4394.411792766683 5431 10 9263626 4446256146 7.4140290446676e+15
96	13409124 249649 73598 2030508639 1.086481127814 4394.411792766683 5431 0.013190962899 0.056931190557 76.581884300591 1.0925391031686
97	13658773 17249 2966902 2028347454 7.080081307047 4390.087775708162 441 1048576 1048576 462422016 4.8488462784922e+14
98	13676022 14603 2966902 2028347454 7.080081307047 4390.087775708162 441 1 1 441 441
99	13690625 20437 2966902 2028347454 7.080081307047 4390.087775708162 441 1.737663094826 48.105162212733 4055.1065745948 50349.855321266
123	13711062 8441 29552944 2027821870 67.007286424408 4389.036491472004 215 4926 3850881 170220435 2.6435281340051e+14
124	13719503 7372 25576299 2029046578 58.529972991179 4391.490307622315 216 1 1 216 216
125	13726875 10151 29552944 2027821870 67.007286424408 4389.036491472004 215 0.123218670517 53.624094388275 1267.6242595823 17238.874252623
126	13737026 14702 25014796 2029004007 57.403442122363 4391.404486606682 431 0 1 216 216
135	13751728 7779 25312050 2020830010 58.000518399877 4374.31031479282 198 7234 6357442 157371574 2.547578586868e+14
136	13759507 6757 25013294 2020513759 57.400700922622 4373.622363581608 198 1 1 198 198
137	13766264 9346 25312050 2020830010 58.000518399877 4374.31031479282 198 0.098165468872 37.784637755457 1174.1993822327 16046.861796647
138	13775610 13517 24934922 2020830010 57.243546055816 4374.31031479282 396 0 1 198 198
147	13789127 7942 3131018 2029959787 7.405335345125 4393.31740150629 202 6253 4811943 151010056 2.2238683122067e+14
148	13797069 6904 1829649 2029683309 4.786393594403 4392.76601119791 202 1 1 202 202
149	13803973 9541 3131018 2029959787 7.405335345125 4393.31740150629 202 0.134866610209 30.765269764109 1014.9025942196 10594.145132536
150	13813514 13841 1735376 2030807248 4.595245311224 4395.006920064456 405 0 1 203 203
159	13827355 7820 1580887 2009451478 4.289732292021 4346.289175928829 199 3666 6270897 155747838 2.5321037206296e+14
160	13835175 6791 82182 2009075195 1.157593396836 4345.537150908025 199 1 1 199 199
161	13841966 9392 1580887 2009451478 4.289732292021 4346.289175928829 199 0.101986923224 76.838273155086 1117.7651329885 17235.269300432
162	13851358 13581 76118 2009451478 1.121679726941 4346.289175928829 398 0 1 199 199
171	13864939 7841 2802693 2021473188 6.752328646933 4376.031946627985 200 187 4831761 165235632 2.720358262704e+14
172	13872780 6842 154923 2025829219 1.333399809675 4385.048811450271 201 1 1 201 201
173	13879622 9430 2802693 2021473188 6.752328646933 4376.031946627985 200 0.048740818659 56.292799567985 1240.1730391407 17963.754909308
174	13889052 13660 5779 2024293097 0.240574314044 4381.976594192282 401 0 1 201 201
183	13902712 7816 8604109 2024444400 21.467336274275 4382.279657623389 199 1474 6253981 164320696 2.7456182357624e+14
184	13910528 6773 6908417 2022901638 17.143274167899 4379.20454175425 199 1 1 199 199
185	13917301 9387 8604109 2024444400 21.467336274275 4382.279657623389 199 0.068954563515 65.615447338 1174.9491374215 18887.231695688
186	13926688 13561 6864232 2024444400 17.055463413041 4382.279657623389 398 0 1 199 199
195	13940249 7977 4059335 2017822553 9.263907775065 4366.608566247031 204 4457 4340466 140694115 1.920665628914e+14
196	13948226 6936 3001505 2017487923 7.147134699162 4365.912502154117 204 1 1 204 204
197	13955162 9605 4059335 2017822553 9.263907775065 4366.608566247031 204 0.095322531396 37.390592723179 1038.0671346221 11584.512746463
198	13964767 13889 2440205 2017822553 6.025964414007 4366.608566247031 408 0 1 204 204
207	13978656 8349 1062612 2030500954 3.226896275043 4394.396908647827 213 2241 3711779 179102501 2.7627654444208e+14
208	13987005 7243 72871 2025127855 1.073254138428 4383.642464361692 213 1 1 213 213
209	13994248 10030 1062612 2030500954 3.226896275043 4394.396908647827 213 0.160798310849 35.702891472194 1301.2564107496 15914.896212111
210	14004278 14482 59443 2030500954 1.023160340613 4394.396908647827 426 0 1 213 213
219	14018760 8165 8191372 2030681384 20.137261778767 4394.75538181396 208 3548 3621742 169468810 2.6316074894014e+14
220	14026925 7090 8104174 2026045539 19.82687114892 4385.480168640737 208 1 1 208 208
221	14034015 9806 8191372 2030681384 20.137261778767 4394.75538181396 208 0.078298778025 51.87040759023 1195.6563844049 16254.15646407
222	14043821 14177 6705304 2030681384 16.735641281699 4394.75538181396 416 0 1 208 208
231	14057998 8526 3955025 2025048861 9.053792800388 4383.485933996823 217 4020 5182495 170375956 2.7753324441721e+14
232	14066524 7405 1310561 2022321725 3.728811026609 4378.00042533019 217 1 1 217 217
233	14073929 10252 3955025 2025048861 9.053792800388 4383.485933996823 217 0.066986900021 43.589801549852 1317.1630003536 19762.419991206
234	14084181 14817 1247593 2025048861 3.600251992862 4383.485933996823 434 0 1 217 217
243	14098998 7591 18973929 2029485018 45.186023160721 4392.367655139987 193 5855 4628782 154079058 2.5076363152351e+14
244	14106589 6626 16304557 2029933678 39.820057284556 4393.264461527776 194 1 1 194 194
245	14113215 9110 18973929 2029485018 45.186023160721 4392.367655139987 193 0.165118238078 45.546765531202 1114.91562231 15573.201527029
246	14122325 13205 16292403 2029879155 39.7881375716 4393.155523510541 387 0 1 194 194
255	14135530 7300 901857 2021269823 2.902846984371 4375.377416710746 186 6158 4562245 155654917 2.4420000937757e+14
256	14142830 6330 700194 2021112051 2.470227898226 4374.999836951102 186 1 1 186 186
257	14149160 8765 901857 2021269823 2.902846984371 4375.377416710746 186 0.155286240738 43.989502170805 1106.4237296939 16136.295980292
258	14157925 12665 11190 2021269823 0.378216843666 4375.377416710746 372 0 1 186 186
267	14170590 7812 4559387 2019728427 10.272298814559 4371.751598567374 199 48 4384626 175128435 3.2855327579954e+14
268	14178402 6827 1694972 2028119138 4.515271418577 4389.626714045238 200 1 1 200 200
269	14185229 9395 4559387 2019728427 10.272298814559 4371.751598567374 199 0.068557041233 76.097350439348 1313.6735741346 24089.542302779