file 62824249 1471642025                                        
version 2
run _8to13on-6-20160819-23:17:00-10454
attr configname _8to13on
attr datetime 20160819-23:17:00
attr experiment _8to13on
attr inifile omnetpp.ini
attr iterationvars $0=8
attr iterationvars2 "$0=8, $repetition=6"
attr measurement $0=8
attr network University
attr processid 10454
attr repetition 6
attr replication #6
attr resultdir results
attr runnumber 6
attr seedset 6

vector 64  University.ccTVMonitoringHost.udpApp[0]  rcvdPk:vector(packetBytes)  ETV
attr interpolationmode  none
attr source  rcvdPk
attr title  "packets received, vector(packetBytes)"
vector 65  University.ccTVMonitoringHost.udpApp[0]  endToEndDelay:vector  ETV
attr interpolationmode  none
attr source  messageAge(rcvdPk)
attr title  "end-to-end delay, vector"
attr unit  s
vector 83  University.profLaptop.udpApp[0]  sentPk:vector(packetBytes)  ETV
attr interpolationmode  none
attr source  sentPk
attr title  "packets sent, vector(packetBytes)"
vector 82  University.profLaptop.udpApp[0]  rcvdPk:vector(packetBytes)  ETV
attr interpolationmode  none
attr source  rcvdPk
attr title  "packets received, vector(packetBytes)"
vector 84  University.profLaptop.udpApp[0]  rcvdPkLifetime:vector  ETV
attr interpolationmode  none
attr source  messageAge(rcvdPk)
attr title  "received packet lifetime, vector"
attr unit  s
vector 119  University.CCTV.udpApp[0]  sentPk:vector(packetBytes)  ETV
attr interpolationmode  none
attr source  sentPk
attr title  "packets sent, vector(packetBytes)"
vector 233  University.whostVideoConf.udpApp[0]  rcvdPk:vector(packetBytes)  ETV
attr interpolationmode  none
attr source  rcvdPk
attr title  "packets received, vector(packetBytes)"
vector 235  University.whostVideoConf.udpApp[0]  rcvdPkLifetime:vector  ETV
attr interpolationmode  none
attr source  messageAge(rcvdPk)
attr title  "received packet lifetime, vector"
attr unit  s
vector 234  University.whostVideoConf.udpApp[0]  sentPk:vector(packetBytes)  ETV
attr interpolationmode  none
attr source  sentPk
attr title  "packets sent, vector(packetBytes)"
vector 222  University.whttpStudents[7].tcpApp[0]  sentPk:vector(packetBytes)  ETV
attr interpolationmode  none
attr source  sentPk
attr title  "packets sent, vector(packetBytes)"
vector 101  University.Server.tcpApp[0]  rcvdPk:vector(packetBytes)  ETV
attr interpolationmode  none
attr source  rcvdPk
attr title  "packets received, vector(packetBytes)"
vector 103  University.Server.tcpApp[0]  endToEndDelay:vector  ETV
attr interpolationmode  none
attr source  messageAge(rcvdPk)
attr title  "end-to-end delay, vector"
attr unit  s
vector 102  University.Server.tcpApp[0]  sentPk:vector(packetBytes)  ETV
attr interpolationmode  none
attr source  sentPk
attr title  "packets sent, vector(packetBytes)"
vector 287  University.mainR.ppp[0].inputHook[0]  "thruput (bit/sec)"  ETV
vector 288  University.mainR.ppp[0].inputHook[0]  packet/sec  ETV
vector 297  University.mainR.ppp[3].outputHook[0]  "thruput (bit/sec)"  ETV
vector 298  University.mainR.ppp[3].outputHook[0]  packet/sec  ETV
vector 303  University.ccTVMonitoringHost.ppp[0].inputHook[0]  "thruput (bit/sec)"  ETV
vector 304  University.ccTVMonitoringHost.ppp[0].inputHook[0]  packet/sec  ETV
vector 305  University.profLaptop.ppp[0].outputHook[0]  "thruput (bit/sec)"  ETV
vector 306  University.profLaptop.ppp[0].outputHook[0]  packet/sec  ETV
vector 291  University.mainR.ppp[1].inputHook[0]  "thruput (bit/sec)"  ETV
vector 292  University.mainR.ppp[1].inputHook[0]  packet/sec  ETV
vector 285  University.mainR.ppp[0].outputHook[0]  "thruput (bit/sec)"  ETV
vector 286  University.mainR.ppp[0].outputHook[0]  packet/sec  ETV
vector 313  University.CCTV.eth[0].outputHook[0]  "thruput (bit/sec)"  ETV
vector 314  University.CCTV.eth[0].outputHook[0]  packet/sec  ETV
vector 279  University.remoteR.eth[1].inputHook[0]  "thruput (bit/sec)"  ETV
vector 280  University.remoteR.eth[1].inputHook[0]  packet/sec  ETV
vector 281  University.remoteR.ppp[0].outputHook[0]  "thruput (bit/sec)"  ETV
vector 282  University.remoteR.ppp[0].outputHook[0]  packet/sec  ETV
vector 283  University.remoteR.ppp[0].inputHook[0]  "thruput (bit/sec)"  ETV
vector 284  University.remoteR.ppp[0].inputHook[0]  packet/sec  ETV
vector 273  University.remoteR.eth[0].outputHook[0]  "thruput (bit/sec)"  ETV
vector 274  University.remoteR.eth[0].outputHook[0]  packet/sec  ETV
vector 429  University.accessPoint.eth[0].inputHook[0]  "thruput (bit/sec)"  ETV
vector 430  University.accessPoint.eth[0].inputHook[0]  packet/sec  ETV
vector 417  University.accessPoint.wlan[0].outputHook[0]  "thruput (bit/sec)"  ETV
vector 418  University.accessPoint.wlan[0].outputHook[0]  packet/sec  ETV
vector 397  University.whostVideoConf.wlan[0].outputHook[0]  "thruput (bit/sec)"  ETV
vector 398  University.whostVideoConf.wlan[0].outputHook[0]  packet/sec  ETV
vector 419  University.accessPoint.wlan[0].inputHook[0]  "thruput (bit/sec)"  ETV
vector 420  University.accessPoint.wlan[0].inputHook[0]  packet/sec  ETV
vector 427  University.accessPoint.eth[0].outputHook[0]  "thruput (bit/sec)"  ETV
vector 428  University.accessPoint.eth[0].outputHook[0]  packet/sec  ETV
vector 275  University.remoteR.eth[0].inputHook[0]  "thruput (bit/sec)"  ETV
vector 276  University.remoteR.eth[0].inputHook[0]  packet/sec  ETV
vector 399  University.whostVideoConf.wlan[0].inputHook[0]  "thruput (bit/sec)"  ETV
vector 400  University.whostVideoConf.wlan[0].inputHook[0]  packet/sec  ETV
vector 289  University.mainR.ppp[1].outputHook[0]  "thruput (bit/sec)"  ETV
vector 290  University.mainR.ppp[1].outputHook[0]  packet/sec  ETV
vector 307  University.profLaptop.ppp[0].inputHook[0]  "thruput (bit/sec)"  ETV
vector 308  University.profLaptop.ppp[0].inputHook[0]  packet/sec  ETV
vector 293  University.mainR.ppp[2].outputHook[0]  "thruput (bit/sec)"  ETV
vector 294  University.mainR.ppp[2].outputHook[0]  packet/sec  ETV
vector 311  University.Server.ppp[0].inputHook[0]  "thruput (bit/sec)"  ETV
vector 312  University.Server.ppp[0].inputHook[0]  packet/sec  ETV
vector 309  University.Server.ppp[0].outputHook[0]  "thruput (bit/sec)"  ETV
vector 310  University.Server.ppp[0].outputHook[0]  packet/sec  ETV
vector 295  University.mainR.ppp[2].inputHook[0]  "thruput (bit/sec)"  ETV
vector 296  University.mainR.ppp[2].inputHook[0]  packet/sec  ETV
vector 409  University.whostFTP.wlan[0].inputHook[0]  "thruput (bit/sec)"  ETV
vector 410  University.whostFTP.wlan[0].inputHook[0]  packet/sec  ETV
vector 407  University.whostFTP.wlan[0].outputHook[0]  "thruput (bit/sec)"  ETV
vector 408  University.whostFTP.wlan[0].outputHook[0]  packet/sec  ETV
vector 319  University.whttpStudents[0].wlan[0].inputHook[0]  "thruput (bit/sec)"  ETV
vector 320  University.whttpStudents[0].wlan[0].inputHook[0]  packet/sec  ETV
vector 317  University.whttpStudents[0].wlan[0].outputHook[0]  "thruput (bit/sec)"  ETV
vector 318  University.whttpStudents[0].wlan[0].outputHook[0]  packet/sec  ETV
vector 387  University.whttpStudents[7].wlan[0].outputHook[0]  "thruput (bit/sec)"  ETV
vector 388  University.whttpStudents[7].wlan[0].outputHook[0]  packet/sec  ETV
vector 389  University.whttpStudents[7].wlan[0].inputHook[0]  "thruput (bit/sec)"  ETV
vector 390  University.whttpStudents[7].wlan[0].inputHook[0]  packet/sec  ETV
vector 104  University.Server.tcpApp[1]  rcvdPk:vector(packetBytes)  ETV
attr interpolationmode  none
attr source  rcvdPk
attr title  "packets received, vector(packetBytes)"
vector 106  University.Server.tcpApp[1]  endToEndDelay:vector  ETV
attr interpolationmode  none
attr source  messageAge(rcvdPk)
attr title  "end-to-end delay, vector"
attr unit  s
vector 105  University.Server.tcpApp[1]  sentPk:vector(packetBytes)  ETV
attr interpolationmode  none
attr source  sentPk
attr title  "packets sent, vector(packetBytes)"
vector 249  University.whostFTP.tcpApp[0]  rcvdPk:vector(packetBytes)  ETV
attr interpolationmode  none
attr source  rcvdPk
attr title  "packets received, vector(packetBytes)"
vector 251  University.whostFTP.tcpApp[0]  endToEndDelay:vector  ETV
attr interpolationmode  none
attr source  messageAge(rcvdPk)
attr title  "end-to-end delay, vector"
attr unit  s
vector 252  University.whostFTP.tcpApp[0]  numActiveSessions:vector  ETV
attr interpolationmode  sample-hold
attr source  sum(connect)
attr title  "number of active sessions, vector"
vector 250  University.whostFTP.tcpApp[0]  sentPk:vector(packetBytes)  ETV
attr interpolationmode  none
attr source  sentPk
attr title  "packets sent, vector(packetBytes)"
vector 212  University.whttpStudents[6].tcpApp[0]  numActiveSessions:vector  ETV
attr interpolationmode  sample-hold
attr source  sum(connect)
attr title  "number of active sessions, vector"
vector 210  University.whttpStudents[6].tcpApp[0]  sentPk:vector(packetBytes)  ETV
attr interpolationmode  none
attr source  sentPk
attr title  "packets sent, vector(packetBytes)"
vector 164  University.whttpStudents[2].tcpApp[0]  numActiveSessions:vector  ETV
attr interpolationmode  sample-hold
attr source  sum(connect)
attr title  "number of active sessions, vector"
vector 176  University.whttpStudents[3].tcpApp[0]  numActiveSessions:vector  ETV
attr interpolationmode  sample-hold
attr source  sum(connect)
attr title  "number of active sessions, vector"
vector 221  University.whttpStudents[7].tcpApp[0]  rcvdPk:vector(packetBytes)  ETV
attr interpolationmode  none
attr source  rcvdPk
attr title  "packets received, vector(packetBytes)"
vector 223  University.whttpStudents[7].tcpApp[0]  endToEndDelay:vector  ETV
attr interpolationmode  none
attr source  messageAge(rcvdPk)
attr title  "end-to-end delay, vector"
attr unit  s
vector 224  University.whttpStudents[7].tcpApp[0]  numActiveSessions:vector  ETV
attr interpolationmode  sample-hold
attr source  sum(connect)
attr title  "number of active sessions, vector"
vector 162  University.whttpStudents[2].tcpApp[0]  sentPk:vector(packetBytes)  ETV
attr interpolationmode  none
attr source  sentPk
attr title  "packets sent, vector(packetBytes)"
vector 174  University.whttpStudents[3].tcpApp[0]  sentPk:vector(packetBytes)  ETV
attr interpolationmode  none
attr source  sentPk
attr title  "packets sent, vector(packetBytes)"
vector 379  University.whttpStudents[6].wlan[0].inputHook[0]  "thruput (bit/sec)"  ETV
vector 380  University.whttpStudents[6].wlan[0].inputHook[0]  packet/sec  ETV
vector 377  University.whttpStudents[6].wlan[0].outputHook[0]  "thruput (bit/sec)"  ETV
vector 378  University.whttpStudents[6].wlan[0].outputHook[0]  packet/sec  ETV
vector 339  University.whttpStudents[2].wlan[0].inputHook[0]  "thruput (bit/sec)"  ETV
vector 340  University.whttpStudents[2].wlan[0].inputHook[0]  packet/sec  ETV
vector 349  University.whttpStudents[3].wlan[0].inputHook[0]  "thruput (bit/sec)"  ETV
vector 350  University.whttpStudents[3].wlan[0].inputHook[0]  packet/sec  ETV
vector 209  University.whttpStudents[6].tcpApp[0]  rcvdPk:vector(packetBytes)  ETV
attr interpolationmode  none
attr source  rcvdPk
attr title  "packets received, vector(packetBytes)"
vector 211  University.whttpStudents[6].tcpApp[0]  endToEndDelay:vector  ETV
attr interpolationmode  none
attr source  messageAge(rcvdPk)
attr title  "end-to-end delay, vector"
attr unit  s
vector 337  University.whttpStudents[2].wlan[0].outputHook[0]  "thruput (bit/sec)"  ETV
vector 338  University.whttpStudents[2].wlan[0].outputHook[0]  packet/sec  ETV
vector 347  University.whttpStudents[3].wlan[0].outputHook[0]  "thruput (bit/sec)"  ETV
vector 348  University.whttpStudents[3].wlan[0].outputHook[0]  packet/sec  ETV
vector 173  University.whttpStudents[3].tcpApp[0]  rcvdPk:vector(packetBytes)  ETV
attr interpolationmode  none
attr source  rcvdPk
attr title  "packets received, vector(packetBytes)"
vector 175  University.whttpStudents[3].tcpApp[0]  endToEndDelay:vector  ETV
attr interpolationmode  none
attr source  messageAge(rcvdPk)
attr title  "end-to-end delay, vector"
attr unit  s
vector 188  University.whttpStudents[4].tcpApp[0]  numActiveSessions:vector  ETV
attr interpolationmode  sample-hold
attr source  sum(connect)
attr title  "number of active sessions, vector"
vector 369  University.whttpStudents[5].wlan[0].inputHook[0]  "thruput (bit/sec)"  ETV
vector 370  University.whttpStudents[5].wlan[0].inputHook[0]  packet/sec  ETV
vector 329  University.whttpStudents[1].wlan[0].inputHook[0]  "thruput (bit/sec)"  ETV
vector 330  University.whttpStudents[1].wlan[0].inputHook[0]  packet/sec  ETV
vector 359  University.whttpStudents[4].wlan[0].inputHook[0]  "thruput (bit/sec)"  ETV
vector 360  University.whttpStudents[4].wlan[0].inputHook[0]  packet/sec  ETV
vector 186  University.whttpStudents[4].tcpApp[0]  sentPk:vector(packetBytes)  ETV
attr interpolationmode  none
attr source  sentPk
attr title  "packets sent, vector(packetBytes)"
vector 357  University.whttpStudents[4].wlan[0].outputHook[0]  "thruput (bit/sec)"  ETV
vector 358  University.whttpStudents[4].wlan[0].outputHook[0]  packet/sec  ETV
vector 185  University.whttpStudents[4].tcpApp[0]  rcvdPk:vector(packetBytes)  ETV
attr interpolationmode  none
attr source  rcvdPk
attr title  "packets received, vector(packetBytes)"
vector 187  University.whttpStudents[4].tcpApp[0]  endToEndDelay:vector  ETV
attr interpolationmode  none
attr source  messageAge(rcvdPk)
attr title  "end-to-end delay, vector"
attr unit  s
vector 200  University.whttpStudents[5].tcpApp[0]  numActiveSessions:vector  ETV
attr interpolationmode  sample-hold
attr source  sum(connect)
attr title  "number of active sessions, vector"
vector 198  University.whttpStudents[5].tcpApp[0]  sentPk:vector(packetBytes)  ETV
attr interpolationmode  none
attr source  sentPk
attr title  "packets sent, vector(packetBytes)"
vector 367  University.whttpStudents[5].wlan[0].outputHook[0]  "thruput (bit/sec)"  ETV
vector 368  University.whttpStudents[5].wlan[0].outputHook[0]  packet/sec  ETV
vector 197  University.whttpStudents[5].tcpApp[0]  rcvdPk:vector(packetBytes)  ETV
attr interpolationmode  none
attr source  rcvdPk
attr title  "packets received, vector(packetBytes)"
vector 199  University.whttpStudents[5].tcpApp[0]  endToEndDelay:vector  ETV
attr interpolationmode  none
attr source  messageAge(rcvdPk)
attr title  "end-to-end delay, vector"
attr unit  s
vector 161  University.whttpStudents[2].tcpApp[0]  rcvdPk:vector(packetBytes)  ETV
attr interpolationmode  none
attr source  rcvdPk
attr title  "packets received, vector(packetBytes)"
vector 163  University.whttpStudents[2].tcpApp[0]  endToEndDelay:vector  ETV
attr interpolationmode  none
attr source  messageAge(rcvdPk)
attr title  "end-to-end delay, vector"
attr unit  s
vector 137  University.whttpStudents[0].tcpApp[0]  rcvdPk:vector(packetBytes)  ETV
attr interpolationmode  none
attr source  rcvdPk
attr title  "packets received, vector(packetBytes)"
vector 139  University.whttpStudents[0].tcpApp[0]  endToEndDelay:vector  ETV
attr interpolationmode  none
attr source  messageAge(rcvdPk)
attr title  "end-to-end delay, vector"
attr unit  s
vector 140  University.whttpStudents[0].tcpApp[0]  numActiveSessions:vector  ETV
attr interpolationmode  sample-hold
attr source  sum(connect)
attr title  "number of active sessions, vector"
vector 152  University.whttpStudents[1].tcpApp[0]  numActiveSessions:vector  ETV
attr interpolationmode  sample-hold
attr source  sum(connect)
attr title  "number of active sessions, vector"
vector 150  University.whttpStudents[1].tcpApp[0]  sentPk:vector(packetBytes)  ETV
attr interpolationmode  none
attr source  sentPk
attr title  "packets sent, vector(packetBytes)"
vector 327  University.whttpStudents[1].wlan[0].outputHook[0]  "thruput (bit/sec)"  ETV
vector 328  University.whttpStudents[1].wlan[0].outputHook[0]  packet/sec  ETV
vector 149  University.whttpStudents[1].tcpApp[0]  rcvdPk:vector(packetBytes)  ETV
attr interpolationmode  none
attr source  rcvdPk
attr title  "packets received, vector(packetBytes)"
vector 151  University.whttpStudents[1].tcpApp[0]  endToEndDelay:vector  ETV
attr interpolationmode  none
attr source  messageAge(rcvdPk)
attr title  "end-to-end delay, vector"
attr unit  s
vector 138  University.whttpStudents[0].tcpApp[0]  sentPk:vector(packetBytes)  ETV
attr interpolationmode  none
attr source  sentPk
attr title  "packets sent, vector(packetBytes)"
vector 277  University.remoteR.eth[1].outputHook[0]  "thruput (bit/sec)"  ETV
vector 278  University.remoteR.eth[1].outputHook[0]  packet/sec  ETV
vector 315  University.CCTV.eth[0].inputHook[0]  "thruput (bit/sec)"  ETV
vector 316  University.CCTV.eth[0].inputHook[0]  packet/sec  ETV
64	16557 2147526 402697 158409500 5.000400085506 2401.280400085506 59908 10240 10240 613457920 6281809100800
65	2164083 2686280 402697 158409500 5.000400085506 2401.280400085506 59908 0.017080129996 0.063780037631 1040.2099741751 18.288898543988
82	4850363 2039807 403243 158409541 5.01595458535 2401.29595458535 59886 1400 1400 83840400 117376560000
83	6890170 2088022 402942 158409516 5.008376254625 2401.288376254625 59908 1400 1400 83871200 117419680000
84	8978192 2637151 403243 158409541 5.01595458535 2401.29595458535 59886 0.016345614498 1.017930650162 1037.7348409653 27.631789180029
101	11615343 23784 421273 158165434 5.832134405097 2398.271801795222 727 1 1 727 727
102	11639127 27549 421273 158165434 5.832134405097 2398.271801795222 727 285 6326318 596606917 9.8870878888342e+14
103	11666676 33093 421273 158165434 5.832134405097 2398.271801795222 727 0.07781828485 0.101645606904 57.346956823739 4.5281907421731
104	11699769 6667 603496 157851966 10.045894013111 2392.508533919906 172 1048576 1048576 180355072 1.8911599997747e+14
105	11706436 5635 603496 157851966 10.045894013111 2392.508533919906 172 1 1 172 172
106	11712071 7977 603496 157851966 10.045894013111 2392.508533919906 172 4.896851516051 38.52999255079 2288.0737306564 36886.826582216
119	11720048 2147931 403258 158409542 5.02331995551 2401.30331995551 59908 10240 10240 613457920 6281809100800
137	13867979 3634 3153028 155899174 50.250150951782 2356.190504255013 96 2781 2935016 70001826 93537921395444
138	13871613 3148 4782385 156127265 69.952598709106 2362.085961428336 96 1 1 96 96
139	13874761 4399 3153028 155899174 50.250150951782 2356.190504255013 96 0.359462151795 49.434065531097 883.43982790053 21803.279576652
140	13879160 6378 3153028 156124943 50.250150951782 2361.906321355014 192 -1 0 -96 96
149	13885538 3223 4199287 157483049 64.941814735418 2381.119910891531 85 9891 3305630 66872627 95249567631919
150	13888761 2782 4056968 157433271 63.205961419792 2379.858776293729 85 1 1 85 85
151	13891543 3905 4199287 157483049 64.941814735418 2381.119910891531 85 0.54135007349 49.235773685755 907.99657185621 24978.872024986
152	13895448 5559 4053382 157483049 63.024421669902 2381.119910891531 170 0 1 85 85
161	13901007 3909 3050814 157560214 47.739842807115 2381.744534593985 103 285 3778267 86767630 1.3757914686817e+14
162	13904916 3371 639040 157444652 11.497586961259 2380.289266909822 103 1 1 103 103
163	13908287 4739 3050814 157560214 47.739842807115 2381.744534593985 103 0.178407292462 62.481088650291 1120.1116241415 30688.146404332
164	13913026 6744 629512 157560214 11.31951096729 2381.744534593985 206 0 1 103 103
173	13919770 3328 821726 156109351 12.690194205148 2360.647371747926 88 8420 4452686 65494660 1.0490031819176e+14
174	13923098 2867 639698 155346866 11.515761478121 2348.12808649775 88 1 1 88 88
175	13925965 4037 821726 156109351 12.690194205148 2360.647371747926 88 0.534490653865 74.756702939706 823.79735937061 22105.034860729
176	13930002 5748 630054 156109351 11.337997323347 2360.647371747926 176 0 1 88 88
185	13935750 3051 1309101 157575503 16.521664286692 2381.863302570431 80 1242 3526715 77687103 1.3167140067879e+14
186	13938801 2647 1115078 158164250 14.794684279334 2398.193965504372 81 1 1 81 81
187	13941448 3686 1309101 157575503 16.521664286692 2381.863302570431 80 0.233932399692 76.527896089176 1086.3456936164 34537.587721925
188	13945134 5280 1100403 158161523 14.61354268122 2398.018328365579 161 0 1 81 81
197	13950414 3374 2361766 157697248 34.408402783049 2382.948710463517 89 14844 6317208 84251252 1.8915777844038e+14
198	13953788 2912 1468159 157547253 21.293628060778 2381.671406554657 89 1 1 89 89
199	13956700 4094 2361766 157697248 34.408402783049 2382.948710463517 89 0.723360199607 92.782093634235 1182.1288568575 44256.261948935
200	13960794 5818 1440993 157697248 21.098249940955 2382.948710463517 178 0 1 89 89
209	13966612 3524 786933 158069221 12.463528970315 2394.996148924433 93 6948 4302486 68131730 1.0132610029517e+14
210	13970136 3056 623308 157863476 11.125961409585 2393.245961409585 93 1 1 93 93
211	13973192 4278 786933 158069221 12.463528970315 2394.996148924433 93 0.53413040277 77.041747719674 1098.3298985149 39133.192537672
212	13977470 6096 618862 158069221 10.948300701627 2394.996148924433 186 0 1 93 93
221	13983566 3492 630876 158168838 11.367371757024 2398.487371757024 92 26635 6326318 76281228 1.3423302587844e+14
222	13987058 3014 420098 157161584 5.754253092953 2375.86593389204 92 1 1 92 92
223	13990072 4228 630876 158168838 11.367371757024 2398.487371757024 92 0.903316172506 53.735432062185 1059.2721719613 28556.710633326
224	13994300 6090 630876 158168838 11.367371757024 2398.487371757024 183 -1 0 -92 92
233	14000390 2122906 403383 158409667 5.024723309123 2401.304723309123 59268 1400 1400 82975200 116165280000
234	16123296 2147896 403625 158409383 5.039608970852 2401.279608970852 59907 1400 1400 83869800 117417720000
235	18271192 2714421 403383 158409667 5.024723309123 2401.304723309123 59268 0.016321795874 1.01768739947 1387.4940950284 73.423060122754
249	20985613 5631 605023 157853637 10.145581431691 2392.607441523624 172 1 1 172 172
250	20991244 6659 610817 157859214 10.502780979987 2392.965992760466 172 1048576 1048576 180355072 1.8911599997747e+14
251	20997903 7983 605023 157853637 10.145581431691 2392.607441523624 172 5.00209797768 38.629175677666 2314.6416498896 37631.885332721
252	21005886 11438 605023 157856499 10.145581431691 2392.785572431691 344 -1 0 -172 172
273	21017324 102440 424331 158405792 5.024332921291 2399.98469360877 2378 287200 10401376 5791525735.7307 2.6309996268666e+16
274	21119764 98498 424331 158405792 5.024332921291 2399.98469360877 2378 29.834913016379 947.29391222284 613242.12213734 263933659.10773
275	21218262 100190 424581 158356199 5.039997918684 2399.280108099522 2381 287464.76622788 7025064.6761101 2334612855.4518 6.2097054617852e+15
276	21318452 95583 424581 158356199 5.039997918684 2399.280108099522 2381 29.841565825467 905.91827041265 612690.56573188 261042298.20916
277	21414035 874 16170140 158402649 120.02332576551 2280.74332576551 19 1.8660446517827 1.8660446517827 35.454848383872 66.160330206492
278	21414909 931 16170140 158402649 120.02332576551 2280.74332576551 19 0.0083305564811729 0.0083305564811729 0.15828057314229 0.0013185652544342
279	21415840 92995 424274 158405744 5.02344208551 2400.023565125509 2396 2077600 2089367.2027084 4977945823.0587 1.0342214086474e+16
280	21508835 83419 424274 158405744 5.02344208551 2400.023565125509 2396 175 176 419320.97834717 73384863.378592
281	21592254 93003 424276 158405746 5.02344208551 2400.023565125509 2396 2133155.8449308 8762048 7329020979.0282 2.6382147354045e+16
282	21685257 83442 424276 158405746 5.02344208551 2400.023565125509 2396 205 1076 1036664.9294591 553055291.83266
283	21768699 102439 424329 158405790 5.024332921291 2399.98469360877 2378 287200 10401376 5791481950.577 2.6310319108774e+16
284	21871138 98476 424329 158405790 5.024332921291 2399.98469360877 2378 29.834913016379 947.29391222284 613052.99543223 263820032.72259
285	21969614 92189 424190 158405651 5.013376254625 2400.013376254625 2396 287200 12982304 6244696304 3.3874920240921e+16
286	22061803 82720 424190 158405651 5.013376254625 2400.013376254625 2396 30 1219 651674 319358712
287	22144523 96602 424147 158408036 5.000400085506 2400.194446752176 2395 2272840 8965669.759122 7325508079.453 2.6320329878781e+16
288	22241125 89023 424147 158408036 5.000400085506 2400.194446752176 2395 195 1091 1036130.7546494 553427335.99967
289	22330148 96353 425694 158405644 5.09095458535 2399.972225738407 2375 136883.06233285 569841.01679768 678199669.46616 1.9380266097412e+14
290	22426501 90589 425694 158405644 5.09095458535 2399.972225738407 2375 11.982060778436 49.881041386352 59366.217565315 1484989.3769864
291	22517090 90699 424188 158405649 5.013376254625 2400.013376254625 2396 285600 285600 684297600 1.9543539456e+14
292	22607789 81115 424188 158405649 5.013376254625 2400.013376254625 2396 25 25 59900 1497500
293	22688904 105171 428129 158404797 5.121404752172 2399.880445917443 2292 1846.1443787474 6454472 1623526155.1956 4.9802187108286e+15
294	22794075 105046 428129 158404797 5.121404752172 2399.880445917443 2292 5.5555555555556 927.79896925555 541561.49748115 225911782.51934
295	22899121 105875 431072 158408693 5.276932275555 2400.23725062845 2280 1777.7777777778 12412386.163283 5336881092.3224 2.8520965219062e+16
296	23004996 105471 431072 158408693 5.276932275555 2400.23725062845 2280 5.5555555555556 1083.9381963317 569613.07310269 272652159.90062
297	23110467 95754 424149 158371900 5.000400085506 2399.355451418842 2393 1977177.585902 2171700.0353155 4971695106.4861 1.0329518211379e+16
298	23206221 87807 424149 158371900 5.000400085506 2399.355451418842 2393 166.60501197519 182.91543922354 418774.85319915 73287862.298458
303	23294028 95754 424154 158371905 5.000400085506 2399.355451418842 2393 1977177.585902 2171700.0353155 4971695106.4861 1.0329518211379e+16
304	23389782 87807 424154 158371905 5.000400085506 2399.355451418842 2393 166.60501197519 182.91543922354 418774.85319915 73287862.298458
305	23477589 90699 424162 158405637 5.008376254625 2400.008376254625 2396 285600 285600 684297600 1.9543539456e+14
306	23568288 81115 424162 158405637 5.008376254625 2400.008376254625 2396 25 25 59900 1497500
307	23649403 96353 425706 158405704 5.09595458535 2399.977225738407 2375 136883.06233285 569841.01679768 678199669.46616 1.9380266097412e+14
308	23745756 90589 425706 158405704 5.09595458535 2399.977225738407 2375 11.982060778436 49.881041386352 59366.217565315 1484989.3769864
309	23836345 105783 430104 158407797 5.188533919906 2400.148735472801 2280 1777.7777777778 16887390.589668 5807235382.947 3.467224920829e+16
310	23942128 105281 430104 158407797 5.188533919906 2400.148735472801 2280 5.5555555555556 1504.2594799048 608735.53635431 318583858.06618
311	24047409 105223 430100 158405437 5.188533919906 2399.947458285177 2292 1846.143242665 6454472 1623301176.9054 4.9785459504984e+15
312	24152632 105110 430100 158405437 5.188533919906 2399.947458285177 2292 5.5555555555556 927.90720870215 541544.46642056 225900935.73743
313	24257742 90699 424250 158405711 5.02331995551 2400.02331995551 2396 2077600 2077824 4977934080 1.034216515326e+16
314	24348441 81115 424250 158405711 5.02331995551 2400.02331995551 2396 175 176 419320 73384520
315	24429556 874 16170147 158402656 120.02333157551 2280.74333157551 19 1.8660446517827 1.8660446517827 35.454848383872 66.160330206492
316	24430430 931 16170147 158402656 120.02333157551 2280.74333157551 19 0.0083305564811729 0.0083305564811729 0.15828057314229 0.0013185652544342
317	24431361 41195 436383 158406788 5.544733310613 2400.071301925619 888 6.6252973640583 182235.43356045 13936529.077434 1257570086969.7
318	24472556 41265 436383 158406788 5.544733310613 2400.071301925619 888 0.020704054262682 569.48572987639 43537.272320131 12280496.69186
319	24513821 44525 431966 158406784 5.367371775002 2400.071301925619 960 5.7482510676856 7639871.1928762 494707014.1701 1.7485292866636e+15
320	24558346 44674 431966 158406784 5.367371775002 2400.071301925619 960 0.025661835123597 636.65593273968 41597.985169117 12176112.943905
327	24603020 40574 4077837 157456541 63.024421669902 2379.68217294864 870 9.0630571420247 212289.22203972 13226083.21972 1322965119053.5
328	24643594 40629 4077837 157456541 63.024421669902 2379.68217294864 870 0.028322053568827 663.40381887414 41318.626558611 12919175.514749
329	24684223 43767 1101028 157465434 10.949460746562 2379.858776293729 938 5.343478097824 7960845.8264897 475426334.77943 1.9241749585148e+15
330	24727990 43885 1101028 157465434 10.949460746562 2379.858776293729 938 0.023854812936714 663.40381887414 39957.867686684 13399458.921881
337	24771875 48468 787435 157485059 11.31951096729 2380.113629738183 1041 8.7908566890143 160283.80244452 17089865.985331 1515532914637
338	24820343 48540 787435 157485059 11.31951096729 2380.113629738183 1041 0.02747142715317 500.88688263912 53390.472066993 14799720.443963
339	24868883 51425 717777 157497882 10.949460746453 2380.289266909822 1104 6.8539028064691 8035568.0485254 596252175.76757 2.122857645673e+15
340	24920308 51565 717777 157497882 10.949460746453 2380.289266909822 1104 0.030597780386023 669.63067071045 50090.207567935 14776402.965404
347	24971873 37438 792038 156111978 11.337997323347 2359.744733229385 803 3.582422249436 216936.37456083 12731778.288028 1209059322030.2
348	25009311 37492 792038 156111978 11.337997323347 2359.744733229385 803 0.011195069529487 677.9261705026 39773.220035149 11806786.355056
349	25046803 41531 722287 157359257 10.94946072803 2370.785997335994 891 5.2733789932829 7877512.3625057 451679829.7216 1.7426834257194e+15
350	25088334 41712 722287 157359257 10.94946072803 2370.785997335994 891 0.023541870505727 656.92472506499 37969.069058292 12130624.964404
357	25130046 45423 1188703 158406548 14.61354268122 2400.088300378847 973 7.5118434250611 193974.76001363 15607483.874781 1498515300966.7
358	25175469 45472 1188703 158406548 14.61354268122 2400.088300378847 973 0.023474510703316 606.17112504258 48762.772519142 14634425.612348
359	25220941 47890 1101129 158408933 10.94946073003 2400.264896740679 1028 6.580233966031 7660659.572491 569802846.79703 2.239687242432e+15