file 62779265 1471642362                                        
version 2
run _8to13on-8-20160819-23:20:29-10509
attr configname _8to13on
attr datetime 20160819-23:20:29
attr experiment _8to13on
attr inifile omnetpp.ini
attr iterationvars $0=8
attr iterationvars2 "$0=8, $repetition=8"
attr measurement $0=8
attr network University
attr processid 10509
attr repetition 8
attr replication #8
attr resultdir results
attr runnumber 8
attr seedset 8

vector 119  University.CCTV.udpApp[0]  sentPk:vector(packetBytes)  ETV
attr interpolationmode  none
attr source  sentPk
attr title  "packets sent, vector(packetBytes)"
vector 83  University.profLaptop.udpApp[0]  sentPk:vector(packetBytes)  ETV
attr interpolationmode  none
attr source  sentPk
attr title  "packets sent, vector(packetBytes)"
vector 234  University.whostVideoConf.udpApp[0]  sentPk:vector(packetBytes)  ETV
attr interpolationmode  none
attr source  sentPk
attr title  "packets sent, vector(packetBytes)"
vector 64  University.ccTVMonitoringHost.udpApp[0]  rcvdPk:vector(packetBytes)  ETV
attr interpolationmode  none
attr source  rcvdPk
attr title  "packets received, vector(packetBytes)"
vector 65  University.ccTVMonitoringHost.udpApp[0]  endToEndDelay:vector  ETV
attr interpolationmode  none
attr source  messageAge(rcvdPk)
attr title  "end-to-end delay, vector"
attr unit  s
vector 233  University.whostVideoConf.udpApp[0]  rcvdPk:vector(packetBytes)  ETV
attr interpolationmode  none
attr source  rcvdPk
attr title  "packets received, vector(packetBytes)"
vector 235  University.whostVideoConf.udpApp[0]  rcvdPkLifetime:vector  ETV
attr interpolationmode  none
attr source  messageAge(rcvdPk)
attr title  "received packet lifetime, vector"
attr unit  s
vector 82  University.profLaptop.udpApp[0]  rcvdPk:vector(packetBytes)  ETV
attr interpolationmode  none
attr source  rcvdPk
attr title  "packets received, vector(packetBytes)"
vector 84  University.profLaptop.udpApp[0]  rcvdPkLifetime:vector  ETV
attr interpolationmode  none
attr source  messageAge(rcvdPk)
attr title  "received packet lifetime, vector"
attr unit  s
vector 313  University.CCTV.eth[0].outputHook[0]  "thruput (bit/sec)"  ETV
vector 314  University.CCTV.eth[0].outputHook[0]  packet/sec  ETV
vector 279  University.remoteR.eth[1].inputHook[0]  "thruput (bit/sec)"  ETV
vector 280  University.remoteR.eth[1].inputHook[0]  packet/sec  ETV
vector 281  University.remoteR.ppp[0].outputHook[0]  "thruput (bit/sec)"  ETV
vector 282  University.remoteR.ppp[0].outputHook[0]  packet/sec  ETV
vector 305  University.profLaptop.ppp[0].outputHook[0]  "thruput (bit/sec)"  ETV
vector 306  University.profLaptop.ppp[0].outputHook[0]  packet/sec  ETV
vector 291  University.mainR.ppp[1].inputHook[0]  "thruput (bit/sec)"  ETV
vector 292  University.mainR.ppp[1].inputHook[0]  packet/sec  ETV
vector 285  University.mainR.ppp[0].outputHook[0]  "thruput (bit/sec)"  ETV
vector 286  University.mainR.ppp[0].outputHook[0]  packet/sec  ETV
vector 397  University.whostVideoConf.wlan[0].outputHook[0]  "thruput (bit/sec)"  ETV
vector 398  University.whostVideoConf.wlan[0].outputHook[0]  packet/sec  ETV
vector 419  University.accessPoint.wlan[0].inputHook[0]  "thruput (bit/sec)"  ETV
vector 420  University.accessPoint.wlan[0].inputHook[0]  packet/sec  ETV
vector 427  University.accessPoint.eth[0].outputHook[0]  "thruput (bit/sec)"  ETV
vector 428  University.accessPoint.eth[0].outputHook[0]  packet/sec  ETV
vector 275  University.remoteR.eth[0].inputHook[0]  "thruput (bit/sec)"  ETV
vector 276  University.remoteR.eth[0].inputHook[0]  packet/sec  ETV
vector 287  University.mainR.ppp[0].inputHook[0]  "thruput (bit/sec)"  ETV
vector 288  University.mainR.ppp[0].inputHook[0]  packet/sec  ETV
vector 297  University.mainR.ppp[3].outputHook[0]  "thruput (bit/sec)"  ETV
vector 298  University.mainR.ppp[3].outputHook[0]  packet/sec  ETV
vector 303  University.ccTVMonitoringHost.ppp[0].inputHook[0]  "thruput (bit/sec)"  ETV
vector 304  University.ccTVMonitoringHost.ppp[0].inputHook[0]  packet/sec  ETV
vector 283  University.remoteR.ppp[0].inputHook[0]  "thruput (bit/sec)"  ETV
vector 284  University.remoteR.ppp[0].inputHook[0]  packet/sec  ETV
vector 273  University.remoteR.eth[0].outputHook[0]  "thruput (bit/sec)"  ETV
vector 274  University.remoteR.eth[0].outputHook[0]  packet/sec  ETV
vector 429  University.accessPoint.eth[0].inputHook[0]  "thruput (bit/sec)"  ETV
vector 430  University.accessPoint.eth[0].inputHook[0]  packet/sec  ETV
vector 417  University.accessPoint.wlan[0].outputHook[0]  "thruput (bit/sec)"  ETV
vector 418  University.accessPoint.wlan[0].outputHook[0]  packet/sec  ETV
vector 399  University.whostVideoConf.wlan[0].inputHook[0]  "thruput (bit/sec)"  ETV
vector 400  University.whostVideoConf.wlan[0].inputHook[0]  packet/sec  ETV
vector 409  University.whostFTP.wlan[0].inputHook[0]  "thruput (bit/sec)"  ETV
vector 410  University.whostFTP.wlan[0].inputHook[0]  packet/sec  ETV
vector 293  University.mainR.ppp[2].outputHook[0]  "thruput (bit/sec)"  ETV
vector 294  University.mainR.ppp[2].outputHook[0]  packet/sec  ETV
vector 289  University.mainR.ppp[1].outputHook[0]  "thruput (bit/sec)"  ETV
vector 290  University.mainR.ppp[1].outputHook[0]  packet/sec  ETV
vector 307  University.profLaptop.ppp[0].inputHook[0]  "thruput (bit/sec)"  ETV
vector 308  University.profLaptop.ppp[0].inputHook[0]  packet/sec  ETV
vector 311  University.Server.ppp[0].inputHook[0]  "thruput (bit/sec)"  ETV
vector 312  University.Server.ppp[0].inputHook[0]  packet/sec  ETV
vector 309  University.Server.ppp[0].outputHook[0]  "thruput (bit/sec)"  ETV
vector 310  University.Server.ppp[0].outputHook[0]  packet/sec  ETV
vector 295  University.mainR.ppp[2].inputHook[0]  "thruput (bit/sec)"  ETV
vector 296  University.mainR.ppp[2].inputHook[0]  packet/sec  ETV
vector 407  University.whostFTP.wlan[0].outputHook[0]  "thruput (bit/sec)"  ETV
vector 408  University.whostFTP.wlan[0].outputHook[0]  packet/sec  ETV
vector 369  University.whttpStudents[5].wlan[0].inputHook[0]  "thruput (bit/sec)"  ETV
vector 370  University.whttpStudents[5].wlan[0].inputHook[0]  packet/sec  ETV
vector 367  University.whttpStudents[5].wlan[0].outputHook[0]  "thruput (bit/sec)"  ETV
vector 368  University.whttpStudents[5].wlan[0].outputHook[0]  packet/sec  ETV
vector 176  University.whttpStudents[3].tcpApp[0]  numActiveSessions:vector  ETV
attr interpolationmode  sample-hold
attr source  sum(connect)
attr title  "number of active sessions, vector"
vector 174  University.whttpStudents[3].tcpApp[0]  sentPk:vector(packetBytes)  ETV
attr interpolationmode  none
attr source  sentPk
attr title  "packets sent, vector(packetBytes)"
vector 101  University.Server.tcpApp[0]  rcvdPk:vector(packetBytes)  ETV
attr interpolationmode  none
attr source  rcvdPk
attr title  "packets received, vector(packetBytes)"
vector 103  University.Server.tcpApp[0]  endToEndDelay:vector  ETV
attr interpolationmode  none
attr source  messageAge(rcvdPk)
attr title  "end-to-end delay, vector"
attr unit  s
vector 102  University.Server.tcpApp[0]  sentPk:vector(packetBytes)  ETV
attr interpolationmode  none
attr source  sentPk
attr title  "packets sent, vector(packetBytes)"
vector 152  University.whttpStudents[1].tcpApp[0]  numActiveSessions:vector  ETV
attr interpolationmode  sample-hold
attr source  sum(connect)
attr title  "number of active sessions, vector"
vector 150  University.whttpStudents[1].tcpApp[0]  sentPk:vector(packetBytes)  ETV
attr interpolationmode  none
attr source  sentPk
attr title  "packets sent, vector(packetBytes)"
vector 164  University.whttpStudents[2].tcpApp[0]  numActiveSessions:vector  ETV
attr interpolationmode  sample-hold
attr source  sum(connect)
attr title  "number of active sessions, vector"
vector 162  University.whttpStudents[2].tcpApp[0]  sentPk:vector(packetBytes)  ETV
attr interpolationmode  none
attr source  sentPk
attr title  "packets sent, vector(packetBytes)"
vector 347  University.whttpStudents[3].wlan[0].outputHook[0]  "thruput (bit/sec)"  ETV
vector 348  University.whttpStudents[3].wlan[0].outputHook[0]  packet/sec  ETV
vector 349  University.whttpStudents[3].wlan[0].inputHook[0]  "thruput (bit/sec)"  ETV
vector 350  University.whttpStudents[3].wlan[0].inputHook[0]  packet/sec  ETV
vector 329  University.whttpStudents[1].wlan[0].inputHook[0]  "thruput (bit/sec)"  ETV
vector 330  University.whttpStudents[1].wlan[0].inputHook[0]  packet/sec  ETV
vector 339  University.whttpStudents[2].wlan[0].inputHook[0]  "thruput (bit/sec)"  ETV
vector 340  University.whttpStudents[2].wlan[0].inputHook[0]  packet/sec  ETV
vector 327  University.whttpStudents[1].wlan[0].outputHook[0]  "thruput (bit/sec)"  ETV
vector 328  University.whttpStudents[1].wlan[0].outputHook[0]  packet/sec  ETV
vector 337  University.whttpStudents[2].wlan[0].outputHook[0]  "thruput (bit/sec)"  ETV
vector 338  University.whttpStudents[2].wlan[0].outputHook[0]  packet/sec  ETV
vector 161  University.whttpStudents[2].tcpApp[0]  rcvdPk:vector(packetBytes)  ETV
attr interpolationmode  none
attr source  rcvdPk
attr title  "packets received, vector(packetBytes)"
vector 163  University.whttpStudents[2].tcpApp[0]  endToEndDelay:vector  ETV
attr interpolationmode  none
attr source  messageAge(rcvdPk)
attr title  "end-to-end delay, vector"
attr unit  s
vector 188  University.whttpStudents[4].tcpApp[0]  numActiveSessions:vector  ETV
attr interpolationmode  sample-hold
attr source  sum(connect)
attr title  "number of active sessions, vector"
vector 379  University.whttpStudents[6].wlan[0].inputHook[0]  "thruput (bit/sec)"  ETV
vector 380  University.whttpStudents[6].wlan[0].inputHook[0]  packet/sec  ETV
vector 389  University.whttpStudents[7].wlan[0].inputHook[0]  "thruput (bit/sec)"  ETV
vector 390  University.whttpStudents[7].wlan[0].inputHook[0]  packet/sec  ETV
vector 319  University.whttpStudents[0].wlan[0].inputHook[0]  "thruput (bit/sec)"  ETV
vector 320  University.whttpStudents[0].wlan[0].inputHook[0]  packet/sec  ETV
vector 359  University.whttpStudents[4].wlan[0].inputHook[0]  "thruput (bit/sec)"  ETV
vector 360  University.whttpStudents[4].wlan[0].inputHook[0]  packet/sec  ETV
vector 186  University.whttpStudents[4].tcpApp[0]  sentPk:vector(packetBytes)  ETV
attr interpolationmode  none
attr source  sentPk
attr title  "packets sent, vector(packetBytes)"
vector 357  University.whttpStudents[4].wlan[0].outputHook[0]  "thruput (bit/sec)"  ETV
vector 358  University.whttpStudents[4].wlan[0].outputHook[0]  packet/sec  ETV
vector 104  University.Server.tcpApp[1]  rcvdPk:vector(packetBytes)  ETV
attr interpolationmode  none
attr source  rcvdPk
attr title  "packets received, vector(packetBytes)"
vector 106  University.Server.tcpApp[1]  endToEndDelay:vector  ETV
attr interpolationmode  none
attr source  messageAge(rcvdPk)
attr title  "end-to-end delay, vector"
attr unit  s
vector 105  University.Server.tcpApp[1]  sentPk:vector(packetBytes)  ETV
attr interpolationmode  none
attr source  sentPk
attr title  "packets sent, vector(packetBytes)"
vector 249  University.whostFTP.tcpApp[0]  rcvdPk:vector(packetBytes)  ETV
attr interpolationmode  none
attr source  rcvdPk
attr title  "packets received, vector(packetBytes)"
vector 251  University.whostFTP.tcpApp[0]  endToEndDelay:vector  ETV
attr interpolationmode  none
attr source  messageAge(rcvdPk)
attr title  "end-to-end delay, vector"
attr unit  s
vector 252  University.whostFTP.tcpApp[0]  numActiveSessions:vector  ETV
attr interpolationmode  sample-hold
attr source  sum(connect)
attr title  "number of active sessions, vector"
vector 140  University.whttpStudents[0].tcpApp[0]  numActiveSessions:vector  ETV
attr interpolationmode  sample-hold
attr source  sum(connect)
attr title  "number of active sessions, vector"
vector 138  University.whttpStudents[0].tcpApp[0]  sentPk:vector(packetBytes)  ETV
attr interpolationmode  none
attr source  sentPk
attr title  "packets sent, vector(packetBytes)"
vector 317  University.whttpStudents[0].wlan[0].outputHook[0]  "thruput (bit/sec)"  ETV
vector 318  University.whttpStudents[0].wlan[0].outputHook[0]  packet/sec  ETV
vector 149  University.whttpStudents[1].tcpApp[0]  rcvdPk:vector(packetBytes)  ETV
attr interpolationmode  none
attr source  rcvdPk
attr title  "packets received, vector(packetBytes)"
vector 151  University.whttpStudents[1].tcpApp[0]  endToEndDelay:vector  ETV
attr interpolationmode  none
attr source  messageAge(rcvdPk)
attr title  "end-to-end delay, vector"
attr unit  s
vector 250  University.whostFTP.tcpApp[0]  sentPk:vector(packetBytes)  ETV
attr interpolationmode  none
attr source  sentPk
attr title  "packets sent, vector(packetBytes)"
vector 212  University.whttpStudents[6].tcpApp[0]  numActiveSessions:vector  ETV
attr interpolationmode  sample-hold
attr source  sum(connect)
attr title  "number of active sessions, vector"
vector 210  University.whttpStudents[6].tcpApp[0]  sentPk:vector(packetBytes)  ETV
attr interpolationmode  none
attr source  sentPk
attr title  "packets sent, vector(packetBytes)"
vector 377  University.whttpStudents[6].wlan[0].outputHook[0]  "thruput (bit/sec)"  ETV
vector 378  University.whttpStudents[6].wlan[0].outputHook[0]  packet/sec  ETV
vector 197  University.whttpStudents[5].tcpApp[0]  rcvdPk:vector(packetBytes)  ETV
attr interpolationmode  none
attr source  rcvdPk
attr title  "packets received, vector(packetBytes)"
vector 199  University.whttpStudents[5].tcpApp[0]  endToEndDelay:vector  ETV
attr interpolationmode  none
attr source  messageAge(rcvdPk)
attr title  "end-to-end delay, vector"
attr unit  s
vector 200  University.whttpStudents[5].tcpApp[0]  numActiveSessions:vector  ETV
attr interpolationmode  sample-hold
attr source  sum(connect)
attr title  "number of active sessions, vector"
vector 137  University.whttpStudents[0].tcpApp[0]  rcvdPk:vector(packetBytes)  ETV
attr interpolationmode  none
attr source  rcvdPk
attr title  "packets received, vector(packetBytes)"
vector 139  University.whttpStudents[0].tcpApp[0]  endToEndDelay:vector  ETV
attr interpolationmode  none
attr source  messageAge(rcvdPk)
attr title  "end-to-end delay, vector"
attr unit  s
vector 224  University.whttpStudents[7].tcpApp[0]  numActiveSessions:vector  ETV
attr interpolationmode  sample-hold
attr source  sum(connect)
attr title  "number of active sessions, vector"
vector 222  University.whttpStudents[7].tcpApp[0]  sentPk:vector(packetBytes)  ETV
attr interpolationmode  none
attr source  sentPk
attr title  "packets sent, vector(packetBytes)"
vector 387  University.whttpStudents[7].wlan[0].outputHook[0]  "thruput (bit/sec)"  ETV
vector 388  University.whttpStudents[7].wlan[0].outputHook[0]  packet/sec  ETV
vector 198  University.whttpStudents[5].tcpApp[0]  sentPk:vector(packetBytes)  ETV
attr interpolationmode  none
attr source  sentPk
attr title  "packets sent, vector(packetBytes)"
vector 221  University.whttpStudents[7].tcpApp[0]  rcvdPk:vector(packetBytes)  ETV
attr interpolationmode  none
attr source  rcvdPk
attr title  "packets received, vector(packetBytes)"
vector 223  University.whttpStudents[7].tcpApp[0]  endToEndDelay:vector  ETV
attr interpolationmode  none
attr source  messageAge(rcvdPk)
attr title  "end-to-end delay, vector"
attr unit  s
vector 209  University.whttpStudents[6].tcpApp[0]  rcvdPk:vector(packetBytes)  ETV
attr interpolationmode  none
attr source  rcvdPk
attr title  "packets received, vector(packetBytes)"
vector 211  University.whttpStudents[6].tcpApp[0]  endToEndDelay:vector  ETV
attr interpolationmode  none
attr source  messageAge(rcvdPk)
attr title  "end-to-end delay, vector"
attr unit  s
vector 185  University.whttpStudents[4].tcpApp[0]  rcvdPk:vector(packetBytes)  ETV
attr interpolationmode  none
attr source  rcvdPk
attr title  "packets received, vector(packetBytes)"
vector 187  University.whttpStudents[4].tcpApp[0]  endToEndDelay:vector  ETV
attr interpolationmode  none
attr source  messageAge(rcvdPk)
attr title  "end-to-end delay, vector"
attr unit  s
vector 173  University.whttpStudents[3].tcpApp[0]  rcvdPk:vector(packetBytes)  ETV
attr interpolationmode  none
attr source  rcvdPk
attr title  "packets received, vector(packetBytes)"
vector 175  University.whttpStudents[3].tcpApp[0]  endToEndDelay:vector  ETV
attr interpolationmode  none
attr source  messageAge(rcvdPk)
attr title  "end-to-end delay, vector"
attr unit  s
vector 277  University.remoteR.eth[1].outputHook[0]  "thruput (bit/sec)"  ETV
vector 278  University.remoteR.eth[1].outputHook[0]  packet/sec  ETV
vector 315  University.CCTV.eth[0].inputHook[0]  "thruput (bit/sec)"  ETV
vector 316  University.CCTV.eth[0].inputHook[0]  packet/sec  ETV
64	16557 2164277 392248 191543864 5.025862519928 2412.665862519928 60192 10240 10240 616366080 6311588659200
65	2180834 2705323 392248 191543864 5.025862519928 2412.665862519928 60192 0.017080129996 0.055323602763 1049.1097249701 18.545103579462
82	4886157 2102432 392359 191545049 5.033389300522 2412.673389300522 60172 1400 1400 84240800 117937120000
83	6988589 2044432 391087 191543316 5.00957758286 2412.64957758286 60192 1400 1400 84268800 117976320000
84	9033021 2702619 392359 191543238 5.033389300522 2412.633389300522 60171 0.016345629585 0.189785585829 1041.7951087694 18.842834336733
101	11735640 28665 453892 191323137 7.867633874117 2410.515825441449 872 1 1 872 872
102	11764305 33185 453892 191323137 7.867633874117 2410.515825441449 872 914 6447197 752481347 1.2901287765209e+15
103	11797490 39829 453892 191323137 7.867633874117 2410.515825441449 872 0.072818342774 0.108324378048 64.532117496489 4.7850773474952
104	11837319 8324 853538 191008573 10.799129818847 2407.328996398113 214 1048576 1048576 224395264 2.3529548834406e+14
105	11845643 7040 853538 191008573 10.799129818847 2407.328996398113 214 1 1 214 214
106	11852683 9968 853538 191008573 10.799129818847 2407.328996398113 214 1.638337672415 21.565128669164 2344.7655089941 27360.243648034
119	11862651 2225008 390998 191543243 5.008782389932 2412.648782389932 60192 10240 10240 616366080 6311588659200
137	14087659 3912 2180476 191088444 25.565071537662 2407.989888790445 102 914 4380392 91977194 1.5062040459662e+14
138	14091571 3406 951079 191320833 11.438356650818 2410.442998062081 103 1 1 103 103
139	14094977 4723 2180476 191088444 25.565071537662 2407.989888790445 102 0.348058297449 154.59062273203 941.24489447496 37202.702112733
140	14099700 6775 943624 191318450 11.352672824347 2410.359197253482 205 0 1 103 103
149	14106475 3890 1310312 190796850 13.874210547361 2403.085110588947 102 7374 4649654 86423123 1.3186790401482e+14
150	14110365 3348 477201 190588980 8.331512878935 2402.154709110278 102 1 1 102 102
151	14113713 4700 1310312 190796850 13.874210547361 2403.085110588947 102 0.37778189211 61.349637260369 801.61088326373 16484.271822587
152	14118413 6695 467625 190796850 8.231827951726 2403.085110588947 204 0 1 102 102
161	14125108 4206 700636 188676224 9.575127852185 2379.248224132685 110 3412 6447197 91277527 1.6836692560297e+14
162	14129314 3664 527843 189658989 8.598611641907 2391.901107488421 111 1 1 111 111
163	14132978 5093 700636 188676224 9.575127852185 2379.248224132685 110 0.169896197124 32.124011212155 763.04625367503 11604.798197487
164	14138071 7299 493295 189657458 8.444126150676 2391.81852955674 221 0 1 111 111
173	14145370 4516 3783015 190300013 37.709284476672 2397.98927019349 119 2936 4922342 96287101 1.5022110649351e+14
174	14149886 3940 451871 191003519 7.794752515878 2407.15852089459 120 1 1 120 120
175	14153826 5473 3783015 190300013 37.709284476672 2397.98927019349 119 0.169878080852 49.131154798555 815.03238936817 13982.766716685
176	14159299 7844 449626 191001378 7.710589575451 2407.075942991977 239 0 1 120 120
185	14167143 4102 3384544 189673206 34.961964168542 2392.356983991074 108 2801 3878729 88881042 1.524138872708e+14
186	14171245 3543 721716 189469270 9.862597334862 2390.466353710233 108 1 1 108 108
187	14174788 4974 3384544 189673206 34.961964168542 2392.356983991074 108 0.345784996308 29.29305903832 721.87541541115 11392.706900663
188	14179762 7093 714871 189673206 9.762577975654 2392.356983991074 216 0 1 108 108
197	14186855 4547 2132185 190007059 24.664394846239 2395.330082140315 120 6069 5418044 105910396 2.0657700138304e+14
198	14191402 3896 2535378 189939753 28.418364603414 2394.702060281382 119 1 1 119 119
199	14195298 5504 2132185 190007059 24.664394846239 2395.330082140315 120 0.254167427931 30.509954258287 843.44390711694 14100.967801161
200	14200802 7940 2132185 190007059 24.664394846239 2395.330082140315 239 -1 0 -120 120
209	14208742 4026 3144488 191327757 33.83650415817 2410.672681652052 106 3608 3548775 82186673 1.1940383084284e+14
210	14212768 3487 1666573 190402742 21.546986265453 2400.884785403003 106 1 1 106 106
211	14216255 4891 3144488 191327757 33.83650415817 2410.672681652052 106 0.240006141351 47.488396433695 781.45028364932 14567.739467017
212	14221146 6968 1663158 191327757 21.462823345646 2410.672681652052 212 0 1 106 106
221	14228114 3926 3003369 190958570 33.193888030471 2405.348816139608 103 4424 4928773 104344217 1.9659184933267e+14
222	14232040 3377 2194867 190943306 25.671984531653 2404.915965757406 103 1 1 103 103
223	14235417 4746 3003369 190958570 33.193888030471 2405.348816139608 103 0.251948705734 52.58900008103 926.53879861473 18111.471073117
224	14240163 6770 2183270 190958570 25.578166157945 2405.348816139608 206 0 1 103 103
233	14246933 2134498 392280 191544119 5.025924652445 2412.667058602909 59396 1400 1400 83154400 116416160000
234	16381431 2164816 391141 191543403 5.017043670937 2412.657043670937 60192 1400 1400 84268800 117976320000
235	18546247 2726764 392280 191544119 5.025924652445 2412.667058602909 59396 0.016322766865 0.177349236185 1476.135491956 78.230364365943
249	21273011 7033 889491 191009232 10.954349921693 2407.339880652868 214 1 1 214 214
250	21280044 8325 1311574 191016960 13.888236228674 2407.511609338759 214 1048576 1048576 224395264 2.3529548834406e+14
251	21288369 9947 889491 191009232 10.954349921693 2407.339880652868 214 1.649601914568 21.576297411569 2362.7938414235 27821.340778188
252	21298316 14288 889491 191013012 10.954349921693 2407.428018783932 428 -1 0 -214 214
273	21312604 102911 413030 191507371 5.025534249526 2410.905534249526 2395 286722.04361938 11644497.998396 7111082328.827 3.7231530637534e+16
274	21415515 98691 413030 191507371 5.025534249526 2410.905534249526 2395 33 991 754103.75972703 362447528.5039
275	21514206 101805 412928 191500744 5.017432633856 2410.817432633856 2396 289440 7036689.1945678 2743026758.9885 6.6715161767852e+15
276	21616011 97573 412928 191500744 5.017432633856 2410.817432633856 2396 34 949.37122570017 753508.47636076 358882304.91156
277	21713584 895 18643941 190397682 120.048788199932 2280.768788199932 19 1.8660446517827 1.8660446517827 35.454848383872 66.160330206492
278	21714479 952 18643941 190397682 120.048788199932 2280.768788199932 19 0.0083305564811729 0.0083305564811729 0.15828057314229 0.0013185652544342
279	21715431 93791 412779 191513562 5.008904519932 2411.008904519932 2407 2077600 2077824 5000787680 1.038964579262e+16
280	21809222 84163 412779 191513562 5.008904519932 2411.008904519932 2407 175 176 421245 73721395
281	21893385 93791 412781 191513564 5.008904519932 2411.008904519932 2407 2295616 8608312 7756606728 2.8632337846539e+16
282	21987176 84210 412781 191513564 5.008904519932 2411.008904519932 2407 197 1132 1178216 698533174
283	22071386 102874 413028 191507369 5.025534249526 2410.905534249526 2395 286722.04361938 11644497.998396 7110721346.7667 3.7234282801658e+16
284	22174260 98647 413028 191507369 5.025534249526 2410.905534249526 2395 33 991 753872.71111369 362313425.81016
285	22272907 90645 412853 191513636 5.01457758286 2411.01457758286 2407 285920 13581128 7719327016 4.6430387067988e+16
286	22363552 81198 412853 191513636 5.01457758286 2411.01457758286 2407 26 1151 805406 430510694
287	22444750 99031 412968 191540303 5.019909186598 2411.542949206331 2406 2306888 8686975.2620914 7753053352.4371 2.8608623752525e+16
288	22543781 92270 412968 191540303 5.019909186598 2411.542949206331 2406 203 1119 1177664.8103955 699209065.04424
289	22636051 100419 416262 191501651 5.148389300522 2410.868389300522 2383 177940.44091469 324700.99406984 680377605.34689 1.942857228325e+14
290	22736470 95409 416262 191501651 5.148389300522 2410.868389300522 2383 15.576018987631 28.422706063537 59556.863213138 1488690.7798697
291	22831879 88977 412851 191513634 5.01457758286 2411.01457758286 2407 285600 285600 687439200 1.9633263552e+14
292	22920856 79349 412851 191513634 5.01457758286 2411.01457758286 2407 25 25 60175 1504375
293	23000205 110317 415936 191524097 5.114498390939 2411.165394693209 2366 3753.0704047619 7651944.7084015 2039520330.8361 5.2482662261633e+15
294	23110522 110236 415936 191524097 5.114498390939 2411.165394693209 2366 11.728345014881 907.14546896823 687688.39179865 319228880.0846
295	23220758 110400 416738 191530123 5.176966662406 2411.312286677414 2363 3754.4115183163 12736454.678972 6921291634.8376 4.1295743996563e+16
296	23331158 110371 416738 191530123 5.176966662406 2411.312286677414 2363 8.7735834239436 1073.9884205458 733529.29997316 383617397.41511
297	23441529 97622 412970 191506599 5.019909186598 2410.899909186598 2404 1975337.1711307 2151617.5974508 4994608389.9285 1.0377255777459e+16
298	23539151 90343 412970 191506599 5.019909186598 2410.899909186598 2404 166.43899637798 181.23463590388 420704.81428227 73626535.92765
303	23629494 97622 412975 191506604 5.019909186598 2410.899909186598 2404 1975337.1711307 2151617.5974508 4994608389.9285 1.0377255777459e+16
304	23727116 90343 412975 191506604 5.019909186598 2410.899909186598 2404 166.43899637798 181.23463590388 420704.81428227 73626535.92765
305	23817459 88977 412828 191513611 5.00957758286 2411.00957758286 2407 285600 285600 687439200 1.9633263552e+14
306	23906436 79349 412828 191513611 5.00957758286 2411.00957758286 2407 25 25 60175 1504375
307	23985785 100419 416267 191501845 5.153389300522 2410.873389300522 2383 177940.44091469 324700.99406984 680377605.34689 1.942857228325e+14
308	24086204 95409 416267 191501845 5.153389300522 2410.873389300522 2383 15.576018987631 28.422706063537 59556.863213138 1488690.7798697
309	24181613 110161 416729 191530017 5.176510802458 2411.311830817466 2361 3754.4115183163 21834953.095293 7461448476.763 5.0511431625881e+16
310	24291774 110052 416729 191530017 5.176510802458 2411.311830817466 2361 11.728345014881 1835.7173577232 778502.09994899 454361572.77239
311	24401826 110255 416724 191525878 5.176510802458 2411.227407104728 2366 3753.0704047619 7645477.0304561 2039743738.1768 5.252862997214e+15
312	24512081 110176 416724 191525878 5.176510802458 2411.227407104728 2366 11.728345014881 907.03962644352 687666.63601468 319212316.90352
313	24622257 93791 412755 191513538 5.008782389932 2411.008782389932 2407 2077600 2077824 5000787680 1.038964579262e+16
314	24716048 84163 412755 191513538 5.008782389932 2411.008782389932 2407 175 176 421245 73721395
315	24800211 895 18643948 190397689 120.048794009932 2280.768794009932 19 1.8660446517827 1.8660446517827 35.454848383872 66.160330206492
316	24801106 952 18643948 190397689 120.048794009932 2280.768794009932 19 0.0083305564811729 0.0083305564811729 0.15828057314229 0.0013185652544342
317	24802058 39726 1084240 191533914 11.352672824347 2411.359790464569 849 10.019220473201 219994.29509092 18713803.570442 1448232330931
318	24841784 39786 1084240 191533914 11.352672824347 2411.359790464569 849 0.031310063978752 687.48217215912 58467.46957264 14135921.164867
319	24881570 43099 715190 191537468 7.711749620308 2411.443301546739 921 6.7026946405503 7649223.9587947 703279188.59894 2.1690260600018e+15
320	24924669 43234 715190 191537468 7.711749620308 2411.443301546739 921 0.029922743931028 639.78091448101 59007.026753408 15194857.123545
327	24967903 35078 641649 190792681 8.231827951726 2402.063376336804 751 6.5097318944221 239502.50301778 17653379.922696 1372614675628
328	25002981 35180 641649 190792681 8.231827951726 2402.063376336804 751 0.020342912170069 748.44532193055 55153.447502179 13398641.840195
329	25038161 39082 575787 191320666 7.711749621992 2405.467054712998 836 4.0660940058195 9130684.6213566 658247730.62772 1.9654267852204e+15
330	25077243 39240 575787 191320666 7.711749621992 2405.467054712998 836 0.018152205383123 760.89038511305 55215.48227897 13750495.849636
337	25116483 36059 671489 191174445 8.444126150676 2407.340872688166 771 9.4737450896679 280226.26462693 18565431.655195 1759269717282
338	25152542 36229 671489 191174445 8.444126150676 2407.340872688166 771 0.029605453405212 875.70707695917 58001.502697571 17173029.879284
339	25188771 39768 579268 191320684 7.711749627799 2407.425174966513 848 7.4275098909723 9899673.5005765 663820458.61446 2.4336114037157e+15
340	25228539 39920 579268 191320684 7.711749627799 2407.425174966513 848 0.033158526298984 824.99812499046 55683.001184934 17016623.226997
347	25268459 37850 554152 191532364 7.710589575451 2411.266566870836 814 12.671342563123 240844.56108822 19397486.300064 1558285725224.8
348	25306309 37926 554152 191532364 7.710589575451 2411.266566870836 814 0.039597945509758 752.63925340068 60601.252757502 15209580.57267
349	25344235 41774 554496 191532360 7.711833613265 2411.266566870836 896 4.6801018474094 9020828.2378588 706912207.20374 2.2838678330083e+15
350	25386009 41881 554496 191532360 7.711833613265 2411.266566870836 896 0.020893311818792 752.63925340068 59296.408168973 15985734.501683
357	25427890 32376 845242 189682229 9.762577975654 2391.382951633588 696 6.9652290074015 226615.1258954 17626035.922701 1554376605762.4
358	25460266 32463 845242 189682229 9.762577975654 2391.382951633588 696 0.02176634064813 708.17226842314 55068.130646244 15172592.789538
359	25492729 36744 715248 191320650 7.711749619227 2405.467054710233 789 7.2683589899468 8498067.2210776 630288939.28385 2.1937815505988e+15