file 62365831 1471642989                                        
version 2
run _8to13on-9-20160819-23:27:05-10603
attr configname _8to13on
attr datetime 20160819-23:27:05
attr experiment _8to13on
attr inifile omnetpp.ini
attr iterationvars $0=8
attr iterationvars2 "$0=8, $repetition=9"
attr measurement $0=8
attr network University
attr processid 10603
attr repetition 9
attr replication #9
attr resultdir results
attr runnumber 9
attr seedset 9

vector 64  University.ccTVMonitoringHost.udpApp[0]  rcvdPk:vector(packetBytes)  ETV
attr interpolationmode  none
attr source  rcvdPk
attr title  "packets received, vector(packetBytes)"
vector 65  University.ccTVMonitoringHost.udpApp[0]  endToEndDelay:vector  ETV
attr interpolationmode  none
attr source  messageAge(rcvdPk)
attr title  "end-to-end delay, vector"
attr unit  s
vector 83  University.profLaptop.udpApp[0]  sentPk:vector(packetBytes)  ETV
attr interpolationmode  none
attr source  sentPk
attr title  "packets sent, vector(packetBytes)"
vector 234  University.whostVideoConf.udpApp[0]  sentPk:vector(packetBytes)  ETV
attr interpolationmode  none
attr source  sentPk
attr title  "packets sent, vector(packetBytes)"
vector 119  University.CCTV.udpApp[0]  sentPk:vector(packetBytes)  ETV
attr interpolationmode  none
attr source  sentPk
attr title  "packets sent, vector(packetBytes)"
vector 233  University.whostVideoConf.udpApp[0]  rcvdPk:vector(packetBytes)  ETV
attr interpolationmode  none
attr source  rcvdPk
attr title  "packets received, vector(packetBytes)"
vector 235  University.whostVideoConf.udpApp[0]  rcvdPkLifetime:vector  ETV
attr interpolationmode  none
attr source  messageAge(rcvdPk)
attr title  "received packet lifetime, vector"
attr unit  s
vector 82  University.profLaptop.udpApp[0]  rcvdPk:vector(packetBytes)  ETV
attr interpolationmode  none
attr source  rcvdPk
attr title  "packets received, vector(packetBytes)"
vector 84  University.profLaptop.udpApp[0]  rcvdPkLifetime:vector  ETV
attr interpolationmode  none
attr source  messageAge(rcvdPk)
attr title  "received packet lifetime, vector"
attr unit  s
vector 200  University.whttpStudents[5].tcpApp[0]  numActiveSessions:vector  ETV
attr interpolationmode  sample-hold
attr source  sum(connect)
attr title  "number of active sessions, vector"
vector 198  University.whttpStudents[5].tcpApp[0]  sentPk:vector(packetBytes)  ETV
attr interpolationmode  none
attr source  sentPk
attr title  "packets sent, vector(packetBytes)"
vector 101  University.Server.tcpApp[0]  rcvdPk:vector(packetBytes)  ETV
attr interpolationmode  none
attr source  rcvdPk
attr title  "packets received, vector(packetBytes)"
vector 103  University.Server.tcpApp[0]  endToEndDelay:vector  ETV
attr interpolationmode  none
attr source  messageAge(rcvdPk)
attr title  "end-to-end delay, vector"
attr unit  s
vector 102  University.Server.tcpApp[0]  sentPk:vector(packetBytes)  ETV
attr interpolationmode  none
attr source  sentPk
attr title  "packets sent, vector(packetBytes)"
vector 287  University.mainR.ppp[0].inputHook[0]  "thruput (bit/sec)"  ETV
vector 288  University.mainR.ppp[0].inputHook[0]  packet/sec  ETV
vector 297  University.mainR.ppp[3].outputHook[0]  "thruput (bit/sec)"  ETV
vector 298  University.mainR.ppp[3].outputHook[0]  packet/sec  ETV
vector 303  University.ccTVMonitoringHost.ppp[0].inputHook[0]  "thruput (bit/sec)"  ETV
vector 304  University.ccTVMonitoringHost.ppp[0].inputHook[0]  packet/sec  ETV
vector 305  University.profLaptop.ppp[0].outputHook[0]  "thruput (bit/sec)"  ETV
vector 306  University.profLaptop.ppp[0].outputHook[0]  packet/sec  ETV
vector 397  University.whostVideoConf.wlan[0].outputHook[0]  "thruput (bit/sec)"  ETV
vector 398  University.whostVideoConf.wlan[0].outputHook[0]  packet/sec  ETV
vector 291  University.mainR.ppp[1].inputHook[0]  "thruput (bit/sec)"  ETV
vector 292  University.mainR.ppp[1].inputHook[0]  packet/sec  ETV
vector 285  University.mainR.ppp[0].outputHook[0]  "thruput (bit/sec)"  ETV
vector 286  University.mainR.ppp[0].outputHook[0]  packet/sec  ETV
vector 313  University.CCTV.eth[0].outputHook[0]  "thruput (bit/sec)"  ETV
vector 314  University.CCTV.eth[0].outputHook[0]  packet/sec  ETV
vector 279  University.remoteR.eth[1].inputHook[0]  "thruput (bit/sec)"  ETV
vector 280  University.remoteR.eth[1].inputHook[0]  packet/sec  ETV
vector 281  University.remoteR.ppp[0].outputHook[0]  "thruput (bit/sec)"  ETV
vector 282  University.remoteR.ppp[0].outputHook[0]  packet/sec  ETV
vector 197  University.whttpStudents[5].tcpApp[0]  rcvdPk:vector(packetBytes)  ETV
attr interpolationmode  none
attr source  rcvdPk
attr title  "packets received, vector(packetBytes)"
vector 199  University.whttpStudents[5].tcpApp[0]  endToEndDelay:vector  ETV
attr interpolationmode  none
attr source  messageAge(rcvdPk)
attr title  "end-to-end delay, vector"
attr unit  s
vector 419  University.accessPoint.wlan[0].inputHook[0]  "thruput (bit/sec)"  ETV
vector 420  University.accessPoint.wlan[0].inputHook[0]  packet/sec  ETV
vector 427  University.accessPoint.eth[0].outputHook[0]  "thruput (bit/sec)"  ETV
vector 428  University.accessPoint.eth[0].outputHook[0]  packet/sec  ETV
vector 275  University.remoteR.eth[0].inputHook[0]  "thruput (bit/sec)"  ETV
vector 276  University.remoteR.eth[0].inputHook[0]  packet/sec  ETV
vector 293  University.mainR.ppp[2].outputHook[0]  "thruput (bit/sec)"  ETV
vector 294  University.mainR.ppp[2].outputHook[0]  packet/sec  ETV
vector 311  University.Server.ppp[0].inputHook[0]  "thruput (bit/sec)"  ETV
vector 312  University.Server.ppp[0].inputHook[0]  packet/sec  ETV
vector 409  University.whostFTP.wlan[0].inputHook[0]  "thruput (bit/sec)"  ETV
vector 410  University.whostFTP.wlan[0].inputHook[0]  packet/sec  ETV
vector 283  University.remoteR.ppp[0].inputHook[0]  "thruput (bit/sec)"  ETV
vector 284  University.remoteR.ppp[0].inputHook[0]  packet/sec  ETV
vector 273  University.remoteR.eth[0].outputHook[0]  "thruput (bit/sec)"  ETV
vector 274  University.remoteR.eth[0].outputHook[0]  packet/sec  ETV
vector 429  University.accessPoint.eth[0].inputHook[0]  "thruput (bit/sec)"  ETV
vector 430  University.accessPoint.eth[0].inputHook[0]  packet/sec  ETV
vector 417  University.accessPoint.wlan[0].outputHook[0]  "thruput (bit/sec)"  ETV
vector 418  University.accessPoint.wlan[0].outputHook[0]  packet/sec  ETV
vector 399  University.whostVideoConf.wlan[0].inputHook[0]  "thruput (bit/sec)"  ETV
vector 400  University.whostVideoConf.wlan[0].inputHook[0]  packet/sec  ETV
vector 309  University.Server.ppp[0].outputHook[0]  "thruput (bit/sec)"  ETV
vector 310  University.Server.ppp[0].outputHook[0]  packet/sec  ETV
vector 295  University.mainR.ppp[2].inputHook[0]  "thruput (bit/sec)"  ETV
vector 296  University.mainR.ppp[2].inputHook[0]  packet/sec  ETV
vector 289  University.mainR.ppp[1].outputHook[0]  "thruput (bit/sec)"  ETV
vector 290  University.mainR.ppp[1].outputHook[0]  packet/sec  ETV
vector 307  University.profLaptop.ppp[0].inputHook[0]  "thruput (bit/sec)"  ETV
vector 308  University.profLaptop.ppp[0].inputHook[0]  packet/sec  ETV
vector 407  University.whostFTP.wlan[0].outputHook[0]  "thruput (bit/sec)"  ETV
vector 408  University.whostFTP.wlan[0].outputHook[0]  packet/sec  ETV
vector 319  University.whttpStudents[0].wlan[0].inputHook[0]  "thruput (bit/sec)"  ETV
vector 320  University.whttpStudents[0].wlan[0].inputHook[0]  packet/sec  ETV
vector 317  University.whttpStudents[0].wlan[0].outputHook[0]  "thruput (bit/sec)"  ETV
vector 318  University.whttpStudents[0].wlan[0].outputHook[0]  packet/sec  ETV
vector 188  University.whttpStudents[4].tcpApp[0]  numActiveSessions:vector  ETV
attr interpolationmode  sample-hold
attr source  sum(connect)
attr title  "number of active sessions, vector"
vector 176  University.whttpStudents[3].tcpApp[0]  numActiveSessions:vector  ETV
attr interpolationmode  sample-hold
attr source  sum(connect)
attr title  "number of active sessions, vector"
vector 186  University.whttpStudents[4].tcpApp[0]  sentPk:vector(packetBytes)  ETV
attr interpolationmode  none
attr source  sentPk
attr title  "packets sent, vector(packetBytes)"
vector 174  University.whttpStudents[3].tcpApp[0]  sentPk:vector(packetBytes)  ETV
attr interpolationmode  none
attr source  sentPk
attr title  "packets sent, vector(packetBytes)"
vector 173  University.whttpStudents[3].tcpApp[0]  rcvdPk:vector(packetBytes)  ETV
attr interpolationmode  none
attr source  rcvdPk
attr title  "packets received, vector(packetBytes)"
vector 175  University.whttpStudents[3].tcpApp[0]  endToEndDelay:vector  ETV
attr interpolationmode  none
attr source  messageAge(rcvdPk)
attr title  "end-to-end delay, vector"
attr unit  s
vector 104  University.Server.tcpApp[1]  rcvdPk:vector(packetBytes)  ETV
attr interpolationmode  none
attr source  rcvdPk
attr title  "packets received, vector(packetBytes)"
vector 106  University.Server.tcpApp[1]  endToEndDelay:vector  ETV
attr interpolationmode  none
attr source  messageAge(rcvdPk)
attr title  "end-to-end delay, vector"
attr unit  s
vector 105  University.Server.tcpApp[1]  sentPk:vector(packetBytes)  ETV
attr interpolationmode  none
attr source  sentPk
attr title  "packets sent, vector(packetBytes)"
vector 359  University.whttpStudents[4].wlan[0].inputHook[0]  "thruput (bit/sec)"  ETV
vector 360  University.whttpStudents[4].wlan[0].inputHook[0]  packet/sec  ETV
vector 349  University.whttpStudents[3].wlan[0].inputHook[0]  "thruput (bit/sec)"  ETV
vector 350  University.whttpStudents[3].wlan[0].inputHook[0]  packet/sec  ETV
vector 249  University.whostFTP.tcpApp[0]  rcvdPk:vector(packetBytes)  ETV
attr interpolationmode  none
attr source  rcvdPk
attr title  "packets received, vector(packetBytes)"
vector 251  University.whostFTP.tcpApp[0]  endToEndDelay:vector  ETV
attr interpolationmode  none
attr source  messageAge(rcvdPk)
attr title  "end-to-end delay, vector"
attr unit  s
vector 252  University.whostFTP.tcpApp[0]  numActiveSessions:vector  ETV
attr interpolationmode  sample-hold
attr source  sum(connect)
attr title  "number of active sessions, vector"
vector 369  University.whttpStudents[5].wlan[0].inputHook[0]  "thruput (bit/sec)"  ETV
vector 370  University.whttpStudents[5].wlan[0].inputHook[0]  packet/sec  ETV
vector 367  University.whttpStudents[5].wlan[0].outputHook[0]  "thruput (bit/sec)"  ETV
vector 368  University.whttpStudents[5].wlan[0].outputHook[0]  packet/sec  ETV
vector 185  University.whttpStudents[4].tcpApp[0]  rcvdPk:vector(packetBytes)  ETV
attr interpolationmode  none
attr source  rcvdPk
attr title  "packets received, vector(packetBytes)"
vector 187  University.whttpStudents[4].tcpApp[0]  endToEndDelay:vector  ETV
attr interpolationmode  none
attr source  messageAge(rcvdPk)
attr title  "end-to-end delay, vector"
attr unit  s
vector 250  University.whostFTP.tcpApp[0]  sentPk:vector(packetBytes)  ETV
attr interpolationmode  none
attr source  sentPk
attr title  "packets sent, vector(packetBytes)"
vector 137  University.whttpStudents[0].tcpApp[0]  rcvdPk:vector(packetBytes)  ETV
attr interpolationmode  none
attr source  rcvdPk
attr title  "packets received, vector(packetBytes)"
vector 139  University.whttpStudents[0].tcpApp[0]  endToEndDelay:vector  ETV
attr interpolationmode  none
attr source  messageAge(rcvdPk)
attr title  "end-to-end delay, vector"
attr unit  s
vector 140  University.whttpStudents[0].tcpApp[0]  numActiveSessions:vector  ETV
attr interpolationmode  sample-hold
attr source  sum(connect)
attr title  "number of active sessions, vector"
vector 164  University.whttpStudents[2].tcpApp[0]  numActiveSessions:vector  ETV
attr interpolationmode  sample-hold
attr source  sum(connect)
attr title  "number of active sessions, vector"
vector 379  University.whttpStudents[6].wlan[0].inputHook[0]  "thruput (bit/sec)"  ETV
vector 380  University.whttpStudents[6].wlan[0].inputHook[0]  packet/sec  ETV
vector 329  University.whttpStudents[1].wlan[0].inputHook[0]  "thruput (bit/sec)"  ETV
vector 330  University.whttpStudents[1].wlan[0].inputHook[0]  packet/sec  ETV
vector 389  University.whttpStudents[7].wlan[0].inputHook[0]  "thruput (bit/sec)"  ETV
vector 390  University.whttpStudents[7].wlan[0].inputHook[0]  packet/sec  ETV
vector 339  University.whttpStudents[2].wlan[0].inputHook[0]  "thruput (bit/sec)"  ETV
vector 340  University.whttpStudents[2].wlan[0].inputHook[0]  packet/sec  ETV
vector 162  University.whttpStudents[2].tcpApp[0]  sentPk:vector(packetBytes)  ETV
attr interpolationmode  none
attr source  sentPk
attr title  "packets sent, vector(packetBytes)"
vector 161  University.whttpStudents[2].tcpApp[0]  rcvdPk:vector(packetBytes)  ETV
attr interpolationmode  none
attr source  rcvdPk
attr title  "packets received, vector(packetBytes)"
vector 163  University.whttpStudents[2].tcpApp[0]  endToEndDelay:vector  ETV
attr interpolationmode  none
attr source  messageAge(rcvdPk)
attr title  "end-to-end delay, vector"
attr unit  s
vector 337  University.whttpStudents[2].wlan[0].outputHook[0]  "thruput (bit/sec)"  ETV
vector 338  University.whttpStudents[2].wlan[0].outputHook[0]  packet/sec  ETV
vector 347  University.whttpStudents[3].wlan[0].outputHook[0]  "thruput (bit/sec)"  ETV
vector 348  University.whttpStudents[3].wlan[0].outputHook[0]  packet/sec  ETV
vector 152  University.whttpStudents[1].tcpApp[0]  numActiveSessions:vector  ETV
attr interpolationmode  sample-hold
attr source  sum(connect)
attr title  "number of active sessions, vector"
vector 150  University.whttpStudents[1].tcpApp[0]  sentPk:vector(packetBytes)  ETV
attr interpolationmode  none
attr source  sentPk
attr title  "packets sent, vector(packetBytes)"
vector 357  University.whttpStudents[4].wlan[0].outputHook[0]  "thruput (bit/sec)"  ETV
vector 358  University.whttpStudents[4].wlan[0].outputHook[0]  packet/sec  ETV
vector 327  University.whttpStudents[1].wlan[0].outputHook[0]  "thruput (bit/sec)"  ETV
vector 328  University.whttpStudents[1].wlan[0].outputHook[0]  packet/sec  ETV
vector 149  University.whttpStudents[1].tcpApp[0]  rcvdPk:vector(packetBytes)  ETV
attr interpolationmode  none
attr source  rcvdPk
attr title  "packets received, vector(packetBytes)"
vector 151  University.whttpStudents[1].tcpApp[0]  endToEndDelay:vector  ETV
attr interpolationmode  none
attr source  messageAge(rcvdPk)
attr title  "end-to-end delay, vector"
attr unit  s
vector 138  University.whttpStudents[0].tcpApp[0]  sentPk:vector(packetBytes)  ETV
attr interpolationmode  none
attr source  sentPk
attr title  "packets sent, vector(packetBytes)"
vector 212  University.whttpStudents[6].tcpApp[0]  numActiveSessions:vector  ETV
attr interpolationmode  sample-hold
attr source  sum(connect)
attr title  "number of active sessions, vector"
vector 210  University.whttpStudents[6].tcpApp[0]  sentPk:vector(packetBytes)  ETV
attr interpolationmode  none
attr source  sentPk
attr title  "packets sent, vector(packetBytes)"
vector 377  University.whttpStudents[6].wlan[0].outputHook[0]  "thruput (bit/sec)"  ETV
vector 378  University.whttpStudents[6].wlan[0].outputHook[0]  packet/sec  ETV
vector 224  University.whttpStudents[7].tcpApp[0]  numActiveSessions:vector  ETV
attr interpolationmode  sample-hold
attr source  sum(connect)
attr title  "number of active sessions, vector"
vector 222  University.whttpStudents[7].tcpApp[0]  sentPk:vector(packetBytes)  ETV
attr interpolationmode  none
attr source  sentPk
attr title  "packets sent, vector(packetBytes)"
vector 387  University.whttpStudents[7].wlan[0].outputHook[0]  "thruput (bit/sec)"  ETV
vector 388  University.whttpStudents[7].wlan[0].outputHook[0]  packet/sec  ETV
vector 209  University.whttpStudents[6].tcpApp[0]  rcvdPk:vector(packetBytes)  ETV
attr interpolationmode  none
attr source  rcvdPk
attr title  "packets received, vector(packetBytes)"
vector 211  University.whttpStudents[6].tcpApp[0]  endToEndDelay:vector  ETV
attr interpolationmode  none
attr source  messageAge(rcvdPk)
attr title  "end-to-end delay, vector"
attr unit  s
vector 221  University.whttpStudents[7].tcpApp[0]  rcvdPk:vector(packetBytes)  ETV
attr interpolationmode  none
attr source  rcvdPk
attr title  "packets received, vector(packetBytes)"
vector 223  University.whttpStudents[7].tcpApp[0]  endToEndDelay:vector  ETV
attr interpolationmode  none
attr source  messageAge(rcvdPk)
attr title  "end-to-end delay, vector"
attr unit  s
vector 277  University.remoteR.eth[1].outputHook[0]  "thruput (bit/sec)"  ETV
vector 278  University.remoteR.eth[1].outputHook[0]  packet/sec  ETV
vector 315  University.CCTV.eth[0].inputHook[0]  "thruput (bit/sec)"  ETV
vector 316  University.CCTV.eth[0].inputHook[0]  packet/sec  ETV
64	16557 2191426 429519 252592780 5.007195877145 2433.367195877145 60710 10240 10240 621670400 6365904896000
65	2207983 2736899 429519 252592780 5.007195877145 2433.367195877145 60710 0.017080129996 0.058112787549 1084.0658544163 19.965544060602
82	4944882 2128960 430780 252592396 5.039256008427 2433.359256008427 60707 1400 1400 84989800 118985720000
83	7073842 2131399 429584 252592883 5.019965214626 2433.379965214626 60710 1400 1400 84994000 118991600000
84	9205241 2733749 430780 252592396 5.039256008427 2433.359256008427 60707 0.016345615566 0.192345484281 1081.3144218999 20.619861824071
101	11938990 34308 451472 252558496 5.737511164652 2433.052451892773 1043 1 1 1043 1043
102	11973298 39699 451472 252558496 5.737511164652 2433.052451892773 1043 1471 5634642 840282221 1.3980887708747e+15
103	12012997 47753 451472 252558496 5.737511164652 2433.052451892773 1043 0.011122567042 0.047385947537 13.731234536009 0.19813890153337
104	12060750 18083 568499 252309599 6.649685716312 2430.628911806931 463 1048576 1048576 485490688 5.0907388366029e+14
105	12078833 15305 568499 252309599 6.649685716312 2430.628911806931 463 1 1 463 463
106	12094138 21293 568499 252309599 6.649685716312 2430.628911806931 463 1.852261603783 18.16868839463 2349.5422920021 13180.460813518
119	12115431 2252819 429733 252593039 5.030115747149 2433.390115747149 60710 10240 10240 621670400 6365904896000
137	14368250 5643 738869 246894697 7.605395406044 2377.424533484275 148 3763 3576783 97408705 1.1941647792862e+14
138	14373893 4865 3246171 246144422 40.646925652114 2371.36723488241 147 1 1 147 147
139	14378758 6814 738869 246894697 7.605395406044 2377.424533484275 148 0.076114176338 18.581285167954 492.95675738288 3579.5407848732
140	14385572 9910 738869 246894697 7.605395406044 2377.424533484275 295 -1 0 -148 148
149	14395482 4613 2632863 250162281 33.474774220196 2412.213835339981 121 7764 5634642 101891792 1.9988984270038e+14
150	14400095 4020 2330712 252094744 30.1035864386 2428.938325444813 122 1 1 122 122
151	14404115 5561 2632863 250162281 33.474774220196 2412.213835339981 121 0.11153176959 20.187905346289 462.41962402261 3809.4912401302
152	14409676 8012 2329229 252093605 30.069031556661 2428.903783970308 243 0 1 122 122
161	14417688 4862 859760 252584306 9.783829443157 2433.240387773813 127 4835 5575697 115601526 2.3969890920106e+14
162	14422550 4206 755664 252556835 8.168070106888 2433.039485182354 127 1 1 127 127
163	14426756 5849 859760 252584306 9.783829443157 2433.240387773813 127 0.111964994337 43.48984808647 481.67173081542 5899.5139321363
164	14432605 8390 754106 252584306 8.132375761753 2433.240387773813 254 0 1 127 127
173	14440995 5248 565285 250005166 6.636320788948 2410.766783069702 138 6549 4916546 112661207 1.706457701331e+14
174	14446243 4568 539479 252432459 6.398102773112 2432.341796736714 139 1 1 139 139
175	14450811 6322 565285 250005166 6.636320788948 2410.766783069702 138 0.114451086857 13.490904531132 506.18046661582 3551.864054048
176	14457133 9102 537774 252144049 6.361634203093 2429.306870829359 277 0 1 139 139
185	14466235 4807 604770 252562642 6.806692962534 2433.0778505642 126 5816 4500589 102601276 1.6437576518815e+14
186	14471042 4147 538735 251361056 6.394149458442 2422.046349842421 126 1 1 126 126
187	14475189 5782 604770 252562642 6.806692962534 2433.0778505642 126 0.109937158011 18.076110259461 434.59495404032 3057.2027580924
188	14480971 8292 537163 252562642 6.358224296448 2433.0778505642 252 0 1 126 126
197	14489263 4421 503914 252229828 6.030904289713 2429.712901219272 116 1471 3875018 95792442 1.5422674663737e+14
198	14493684 3829 451047 251700583 5.72632559761 2425.101204062288 116 1 1 116 116
199	14497513 5317 503914 252229828 6.030904289713 2429.712901219272 116 0.070722932491 13.332120246533 385.00047342762 2516.1836125594
200	14502830 7645 448944 252229828 5.690577289131 2429.712901219272 232 0 1 116 116
209	14510475 4916 5142116 249943792 55.361548037188 2410.07577888664 129 2728 3891310 99845363 1.5175827380602e+14
210	14515391 4266 3811845 249817308 45.263720674541 2408.709743662283 129 1 1 129 129
211	14519657 5928 5142116 249943792 55.361548037188 2410.07577888664 129 0.071968078795 18.229418643997 446.32657553413 3276.2910955402
212	14525585 8519 3810368 249943792 45.228017348526 2410.07577888664 258 0 1 129 129
221	14534104 5230 5655736 252400331 58.359485192004 2431.402948789173 137 8403 4936676 112487480 1.9473517547181e+14
222	14539334 4523 4514028 251941380 51.623631446285 2427.089115536048 137 1 1 137 137
223	14543857 6301 5655736 252400331 58.359485192004 2431.402948789173 137 0.134066290306 19.708248532384 514.50361836911 4111.2077377882
224	14550158 9050 4506188 252400331 51.585394605397 2431.402948789173 274 0 1 137 137
233	14559208 2155138 430694 252592446 5.036651343673 2433.359617842056 59788 1400 1400 83703200 117184480000
234	16714346 2192109 429598 252592908 5.022910392861 2433.382910392861 60710 1400 1400 84994000 118991600000
235	18906455 2749334 430694 252592446 5.036651343673 2433.359617842056 59788 0.016321277675 2.024776822092 1744.9349392621 176.12682322682
249	21655789 15245 583129 252311976 6.712402947869 2430.653068274156 463 1 1 463 463
250	21671034 18096 640796 252314997 6.963311332666 2430.723180966654 463 1048576 1048576 485490688 5.0907388366029e+14
251	21689130 21227 583129 252311976 6.712402947869 2430.653068274156 463 1.876400071008 18.196729697981 2380.8177797464 13574.656230182
252	21710357 30951 583129 252313600 6.712402947869 2430.688319603079 926 -1 0 -463 463
273	21741308 105542 513544 252504087 5.072267503359 2431.79632739669 2419 285516.61438489 11827734.333068 7982850124.3165 4.6334801767925e+16
274	21846850 102092 513544 252504087 5.072267503359 2431.79632739669 2419 25 997.40754053333 1006989.6738589 566124890.57311
275	21948942 107845 506483 252473169 5.033064075372 2431.663299341761 2418 277267.88535668 8363435.2423016 4966764183.4378 1.6753746551608e+16
276	22056787 105474 506483 252473169 5.033064075372 2431.663299341761 2418 25 948.71274323884 1003892.4512693 561243273.03277
277	22162261 897 24918361 249227048 120.030121557149 2280.750121557149 19 1.8660446517827 1.8660446517827 35.454848383872 66.160330206492
278	22163158 954 24918361 249227048 120.030121557149 2280.750121557149 19 0.0083305564811729 0.0083305564811729 0.15828057314229 0.0013185652544342
279	22164112 94971 503692 252555022 5.030237877149 2432.030360917148 2428 2077600 2089367.2027084 5044429023.0587 1.0480339582794e+16
280	22259083 85267 503692 252555022 5.030237877149 2432.030360917148 2428 175 176 424920.97834717 74364863.378592
281	22344350 94971 503694 252555024 5.030237877149 2432.030360917148 2428 2363200 9817360 10030298922.108 4.78958698656e+16
282	22439321 85434 503694 252555024 5.030237877149 2432.030360917148 2428 200 1123 1432481.9691317 988259320.51073
283	22524755 105520 513542 252504085 5.072267503359 2431.79632739669 2419 285516.61438489 11827734.333068 7982652242.6809 4.6334068670835e+16
284	22630275 102068 513542 252504085 5.072267503359 2431.79632739669 2419 25 997.40754053333 1006793.3724539 565967945.53811
285	22732343 94285 502515 252553938 5.024965214626 2432.024965214626 2428 285600 13962368 8568943784 5.4615908512284e+16
286	22826628 85007 502515 252553938 5.024965214626 2432.024965214626 2428 25 1191 1056758 633573826
287	22911635 101866 497647 252505153 5.001242543815 2431.802247210481 2426 2340146.3983223 9831058.8188014 10022170321.192 4.7908178464653e+16
288	23013501 95850 497647 252505153 5.001242543815 2431.802247210481 2426 200 1107 1431167.006249 988108718.94134
289	23109351 103146 521792 252466604 5.114256008427 2431.634256008427 2400 241352.14056859 333928.80000715 685413814.24325 1.9576025473898e+14
290	23212497 98870 521792 252466604 5.114256008427 2431.634256008427 2400 21.126763004953 29.2304621855 59997.707829416 1499989.2017084
291	23311367 92527 502513 252553936 5.024965214626 2432.024965214626 2428 285600 285600 693436800 1.9804555008e+14
292	23403894 82815 502513 252553936 5.024965214626 2432.024965214626 2428 25 25 60700 1517500
293	23486709 106715 508888 252533878 5.049205210477 2431.928200543811 2400 221.81722168666 7606903.9961648 4263184101.0318 1.3950773591392e+16
294	23593424 104312 508888 252533878 5.049205210477 2431.928200543811 2400 0.69317881777081 926.79403236657 940617.91136417 507554350.39762
295	23697736 106797 519602 252510238 5.102236170026 2431.823240836692 2389 1103.4482758621 13009674.072566 7783471672.7094 4.9419122528227e+16
296	23804533 104670 519602 252510238 5.102236170026 2431.823240836692 2389 3.448275862069 1116.1198227347 985101.4709163 576996699.73822
297	23909203 99576 497649 252437558 5.001242543815 2431.445261210479 2422 1993054.3871491 2149463.7546536 5032024722.4552 1.0455243429331e+16
298	24008779 92433 497649 252437558 5.001242543815 2431.445261210479 2422 167.94285571809 180.98852790859 423856.41454776 74179823.151289
303	24101212 99576 497654 252437563 5.001242543815 2431.445261210479 2422 1993054.3871491 2149463.7546536 5032024722.4552 1.0455243429331e+16
304	24200788 92433 497654 252437563 5.001242543815 2431.445261210479 2422 167.94285571809 180.98852790859 423856.41454776 74179823.151289
305	24293221 92527 501504 252552919 5.019965214626 2432.019965214626 2428 285600 285600 693436800 1.9804555008e+14
306	24385748 82815 501504 252552919 5.019965214626 2432.019965214626 2428 25 25 60700 1517500
307	24468563 103146 522832 252467762 5.119256008427 2431.639256008427 2400 241352.14056859 333928.80000715 685413814.24325 1.9576025473898e+14
308	24571709 98870 522832 252467762 5.119256008427 2431.639256008427 2400 21.126763004953 29.2304621855 59997.707829416 1499989.2017084
309	24670579 106668 516589 252516480 5.088633954155 2431.848633954155 2389 1103.4482758621 23122585.601171 8412269854.3889 6.1088236550936e+16
310	24777247 104499 516589 252516480 5.088633954155 2431.848633954155 2389 3.448275862069 1960.6852352225 1037512.0303479 670629528.87107
311	24881746 106778 508986 252533948 5.049638620821 2431.928633954155 2400 221.79926408943 7607790.7275406 4262825133.0091 1.3931918396041e+16
312	24988524 104392 508986 252533948 5.049638620821 2431.928633954155 2400 0.69312270027946 926.68581951172 940602.75236795 507490472.22365
313	25092916 94955 503659 252554940 5.030115747149 2432.030115747149 2428 2077600 2077824 5044417280 1.048029064958e+16
314	25187871 85243 503659 252554940 5.030115747149 2432.030115747149 2428 175 176 424920 74364520
315	25273114 897 24918368 249227055 120.030127367149 2280.750127367149 19 1.8660446517827 1.8660446517827 35.454848383872 66.160330206492
316	25274011 954 24918368 249227055 120.030127367149 2280.750127367149 19 0.0083305564811729 0.0083305564811729 0.15828057314229 0.0013185652544342
317	25274965 23948 533638 246845539 5.194774226211 2375.352675666212 515 61.630905002459 277990.07139836 18367694.285228 2053438842485
318	25298913 23908 533638 246845539 5.194774226211 2375.352675666212 515 0.19259657813269 868.71897311989 57378.988953157 20040383.880297
319	25322821 29649 533634 252556224 5.194774226211 2412.134099082516 635 8.467898292676 10421588.660548 695991716.47606 2.9402352043886e+15
320	25352470 29728 533634 252556224 5.194774226211 2412.134099082516 635 0.037803117378018 868.71897311989 58453.247692079 20605221.485748
327	25382198 22138 2497763 252550782 30.069031556661 2431.954774220196 478 5.4010078339466 264485.33310899 19616280.452402 2283735772197.1
328	25404336 22085 2497763 252550782 30.069031556661 2431.954774220196 478 0.016878149481083 826.51666596559 61284.463004604 22290515.093556
329	25426421 28032 754259 252550778 5.691737338203 2431.994774220196 604 6.8191234396011 9918199.991587 734663653.9457 3.2043804795111e+15
330	25454453 28063 754259 252550778 5.691737338203 2431.994774220196 604 0.030442515355362 826.51666596559 61586.091867739 22414228.654516
337	25482516 23601 859763 252521460 8.132375761753 2417.394736394214 514 25.480801724059 268361.88983842 21692816.414975 2777872941395.1
338	25506117 23659 859763 252521460 8.132375761753 2417.394736394214 514 0.079627505387685 838.63090574507 67773.756062442 27117871.042292
339	25529776 28987 754330 252556214 5.691737342761 2417.434684998087 626 6.8786758872016 9995331.7365636 808356646.07859 3.7880078404344e+15
340	25558763 28973 754330 252556214 5.691737342761 2417.434684998087 626 0.030708374496436 832.9443113803 67763.795937135 26481852.144106
347	25587736 24369 1055280 252589071 6.361634203093 2432.306870829359 533 21.519472035612 275629.41700472 20519452.275325 2383278947592.7
348	25612105 24327 1055280 252589071 6.361634203093 2432.306870829359 533 0.067248350111288 861.34192813974 64104.786270545 23261885.20912
349	25636432 29877 582545 252591098 5.691737340811 2432.341009974467 648 6.4707386135829 10352009.331583 785916269.70996 3.3920269214726e+15
350	25666309 29850 582545 252591098 5.691737340811 2432.341009974467 648 0.028887225953495 862.66744429858 65921.81859743 23753709.570753
357	25696159 21126 2346402 252450069 6.358224296448 2428.155778888627 461 4.1249377121861 276110.7587193 18421734.608333 2247102371796.4
358	25717285 21139 2346402 252450069 6.358224296448 2428.155778888627 461 0.012890430350582 862.8461209978 57553.183203449 21933624.643522