file 62609007 1471641419                                        
version 2
run _8to13on-3-20160819-23:01:49-10149
attr configname _8to13on
attr datetime 20160819-23:01:49
attr experiment _8to13on
attr inifile omnetpp.ini
attr iterationvars $0=8
attr iterationvars2 "$0=8, $repetition=3"
attr measurement $0=8
attr network University
attr processid 10149
attr repetition 3
attr replication #3
attr resultdir results
attr runnumber 3
attr seedset 3

vector 82  University.profLaptop.udpApp[0]  rcvdPk:vector(packetBytes)  ETV
attr interpolationmode  none
attr source  rcvdPk
attr title  "packets received, vector(packetBytes)"
vector 84  University.profLaptop.udpApp[0]  rcvdPkLifetime:vector  ETV
attr interpolationmode  none
attr source  messageAge(rcvdPk)
attr title  "received packet lifetime, vector"
attr unit  s
vector 64  University.ccTVMonitoringHost.udpApp[0]  rcvdPk:vector(packetBytes)  ETV
attr interpolationmode  none
attr source  rcvdPk
attr title  "packets received, vector(packetBytes)"
vector 65  University.ccTVMonitoringHost.udpApp[0]  endToEndDelay:vector  ETV
attr interpolationmode  none
attr source  messageAge(rcvdPk)
attr title  "end-to-end delay, vector"
attr unit  s
vector 233  University.whostVideoConf.udpApp[0]  rcvdPk:vector(packetBytes)  ETV
attr interpolationmode  none
attr source  rcvdPk
attr title  "packets received, vector(packetBytes)"
vector 235  University.whostVideoConf.udpApp[0]  rcvdPkLifetime:vector  ETV
attr interpolationmode  none
attr source  messageAge(rcvdPk)
attr title  "received packet lifetime, vector"
attr unit  s
vector 234  University.whostVideoConf.udpApp[0]  sentPk:vector(packetBytes)  ETV
attr interpolationmode  none
attr source  sentPk
attr title  "packets sent, vector(packetBytes)"
vector 83  University.profLaptop.udpApp[0]  sentPk:vector(packetBytes)  ETV
attr interpolationmode  none
attr source  sentPk
attr title  "packets sent, vector(packetBytes)"
vector 119  University.CCTV.udpApp[0]  sentPk:vector(packetBytes)  ETV
attr interpolationmode  none
attr source  sentPk
attr title  "packets sent, vector(packetBytes)"
vector 287  University.mainR.ppp[0].inputHook[0]  "thruput (bit/sec)"  ETV
vector 288  University.mainR.ppp[0].inputHook[0]  packet/sec  ETV
vector 297  University.mainR.ppp[3].outputHook[0]  "thruput (bit/sec)"  ETV
vector 298  University.mainR.ppp[3].outputHook[0]  packet/sec  ETV
vector 303  University.ccTVMonitoringHost.ppp[0].inputHook[0]  "thruput (bit/sec)"  ETV
vector 304  University.ccTVMonitoringHost.ppp[0].inputHook[0]  packet/sec  ETV
vector 397  University.whostVideoConf.wlan[0].outputHook[0]  "thruput (bit/sec)"  ETV
vector 398  University.whostVideoConf.wlan[0].outputHook[0]  packet/sec  ETV
vector 419  University.accessPoint.wlan[0].inputHook[0]  "thruput (bit/sec)"  ETV
vector 420  University.accessPoint.wlan[0].inputHook[0]  packet/sec  ETV
vector 427  University.accessPoint.eth[0].outputHook[0]  "thruput (bit/sec)"  ETV
vector 428  University.accessPoint.eth[0].outputHook[0]  packet/sec  ETV
vector 275  University.remoteR.eth[0].inputHook[0]  "thruput (bit/sec)"  ETV
vector 276  University.remoteR.eth[0].inputHook[0]  packet/sec  ETV
vector 281  University.remoteR.ppp[0].outputHook[0]  "thruput (bit/sec)"  ETV
vector 282  University.remoteR.ppp[0].outputHook[0]  packet/sec  ETV
vector 283  University.remoteR.ppp[0].inputHook[0]  "thruput (bit/sec)"  ETV
vector 284  University.remoteR.ppp[0].inputHook[0]  packet/sec  ETV
vector 273  University.remoteR.eth[0].outputHook[0]  "thruput (bit/sec)"  ETV
vector 274  University.remoteR.eth[0].outputHook[0]  packet/sec  ETV
vector 429  University.accessPoint.eth[0].inputHook[0]  "thruput (bit/sec)"  ETV
vector 430  University.accessPoint.eth[0].inputHook[0]  packet/sec  ETV
vector 417  University.accessPoint.wlan[0].outputHook[0]  "thruput (bit/sec)"  ETV
vector 418  University.accessPoint.wlan[0].outputHook[0]  packet/sec  ETV
vector 305  University.profLaptop.ppp[0].outputHook[0]  "thruput (bit/sec)"  ETV
vector 306  University.profLaptop.ppp[0].outputHook[0]  packet/sec  ETV
vector 313  University.CCTV.eth[0].outputHook[0]  "thruput (bit/sec)"  ETV
vector 314  University.CCTV.eth[0].outputHook[0]  packet/sec  ETV
vector 279  University.remoteR.eth[1].inputHook[0]  "thruput (bit/sec)"  ETV
vector 280  University.remoteR.eth[1].inputHook[0]  packet/sec  ETV
vector 291  University.mainR.ppp[1].inputHook[0]  "thruput (bit/sec)"  ETV
vector 292  University.mainR.ppp[1].inputHook[0]  packet/sec  ETV
vector 285  University.mainR.ppp[0].outputHook[0]  "thruput (bit/sec)"  ETV
vector 286  University.mainR.ppp[0].outputHook[0]  packet/sec  ETV
vector 293  University.mainR.ppp[2].outputHook[0]  "thruput (bit/sec)"  ETV
vector 294  University.mainR.ppp[2].outputHook[0]  packet/sec  ETV
vector 311  University.Server.ppp[0].inputHook[0]  "thruput (bit/sec)"  ETV
vector 312  University.Server.ppp[0].inputHook[0]  packet/sec  ETV
vector 369  University.whttpStudents[5].wlan[0].inputHook[0]  "thruput (bit/sec)"  ETV
vector 370  University.whttpStudents[5].wlan[0].inputHook[0]  packet/sec  ETV
vector 399  University.whostVideoConf.wlan[0].inputHook[0]  "thruput (bit/sec)"  ETV
vector 400  University.whostVideoConf.wlan[0].inputHook[0]  packet/sec  ETV
vector 409  University.whostFTP.wlan[0].inputHook[0]  "thruput (bit/sec)"  ETV
vector 410  University.whostFTP.wlan[0].inputHook[0]  packet/sec  ETV
vector 407  University.whostFTP.wlan[0].outputHook[0]  "thruput (bit/sec)"  ETV
vector 408  University.whostFTP.wlan[0].outputHook[0]  packet/sec  ETV
vector 309  University.Server.ppp[0].outputHook[0]  "thruput (bit/sec)"  ETV
vector 310  University.Server.ppp[0].outputHook[0]  packet/sec  ETV
vector 295  University.mainR.ppp[2].inputHook[0]  "thruput (bit/sec)"  ETV
vector 296  University.mainR.ppp[2].inputHook[0]  packet/sec  ETV
vector 289  University.mainR.ppp[1].outputHook[0]  "thruput (bit/sec)"  ETV
vector 290  University.mainR.ppp[1].outputHook[0]  packet/sec  ETV
vector 307  University.profLaptop.ppp[0].inputHook[0]  "thruput (bit/sec)"  ETV
vector 308  University.profLaptop.ppp[0].inputHook[0]  packet/sec  ETV
vector 164  University.whttpStudents[2].tcpApp[0]  numActiveSessions:vector  ETV
attr interpolationmode  sample-hold
attr source  sum(connect)
attr title  "number of active sessions, vector"
vector 349  University.whttpStudents[3].wlan[0].inputHook[0]  "thruput (bit/sec)"  ETV
vector 350  University.whttpStudents[3].wlan[0].inputHook[0]  packet/sec  ETV
vector 347  University.whttpStudents[3].wlan[0].outputHook[0]  "thruput (bit/sec)"  ETV
vector 348  University.whttpStudents[3].wlan[0].outputHook[0]  packet/sec  ETV
vector 162  University.whttpStudents[2].tcpApp[0]  sentPk:vector(packetBytes)  ETV
attr interpolationmode  none
attr source  sentPk
attr title  "packets sent, vector(packetBytes)"
vector 101  University.Server.tcpApp[0]  rcvdPk:vector(packetBytes)  ETV
attr interpolationmode  none
attr source  rcvdPk
attr title  "packets received, vector(packetBytes)"
vector 103  University.Server.tcpApp[0]  endToEndDelay:vector  ETV
attr interpolationmode  none
attr source  messageAge(rcvdPk)
attr title  "end-to-end delay, vector"
attr unit  s
vector 102  University.Server.tcpApp[0]  sentPk:vector(packetBytes)  ETV
attr interpolationmode  none
attr source  sentPk
attr title  "packets sent, vector(packetBytes)"
vector 367  University.whttpStudents[5].wlan[0].outputHook[0]  "thruput (bit/sec)"  ETV
vector 368  University.whttpStudents[5].wlan[0].outputHook[0]  packet/sec  ETV
vector 224  University.whttpStudents[7].tcpApp[0]  numActiveSessions:vector  ETV
attr interpolationmode  sample-hold
attr source  sum(connect)
attr title  "number of active sessions, vector"
vector 222  University.whttpStudents[7].tcpApp[0]  sentPk:vector(packetBytes)  ETV
attr interpolationmode  none
attr source  sentPk
attr title  "packets sent, vector(packetBytes)"
vector 337  University.whttpStudents[2].wlan[0].outputHook[0]  "thruput (bit/sec)"  ETV
vector 338  University.whttpStudents[2].wlan[0].outputHook[0]  packet/sec  ETV
vector 339  University.whttpStudents[2].wlan[0].inputHook[0]  "thruput (bit/sec)"  ETV
vector 340  University.whttpStudents[2].wlan[0].inputHook[0]  packet/sec  ETV
vector 387  University.whttpStudents[7].wlan[0].outputHook[0]  "thruput (bit/sec)"  ETV
vector 388  University.whttpStudents[7].wlan[0].outputHook[0]  packet/sec  ETV
vector 389  University.whttpStudents[7].wlan[0].inputHook[0]  "thruput (bit/sec)"  ETV
vector 390  University.whttpStudents[7].wlan[0].inputHook[0]  packet/sec  ETV
vector 221  University.whttpStudents[7].tcpApp[0]  rcvdPk:vector(packetBytes)  ETV
attr interpolationmode  none
attr source  rcvdPk
attr title  "packets received, vector(packetBytes)"
vector 223  University.whttpStudents[7].tcpApp[0]  endToEndDelay:vector  ETV
attr interpolationmode  none
attr source  messageAge(rcvdPk)
attr title  "end-to-end delay, vector"
attr unit  s
vector 104  University.Server.tcpApp[1]  rcvdPk:vector(packetBytes)  ETV
attr interpolationmode  none
attr source  rcvdPk
attr title  "packets received, vector(packetBytes)"
vector 106  University.Server.tcpApp[1]  endToEndDelay:vector  ETV
attr interpolationmode  none
attr source  messageAge(rcvdPk)
attr title  "end-to-end delay, vector"
attr unit  s
vector 105  University.Server.tcpApp[1]  sentPk:vector(packetBytes)  ETV
attr interpolationmode  none
attr source  sentPk
attr title  "packets sent, vector(packetBytes)"
vector 249  University.whostFTP.tcpApp[0]  rcvdPk:vector(packetBytes)  ETV
attr interpolationmode  none
attr source  rcvdPk
attr title  "packets received, vector(packetBytes)"
vector 251  University.whostFTP.tcpApp[0]  endToEndDelay:vector  ETV
attr interpolationmode  none
attr source  messageAge(rcvdPk)
attr title  "end-to-end delay, vector"
attr unit  s
vector 252  University.whostFTP.tcpApp[0]  numActiveSessions:vector  ETV
attr interpolationmode  sample-hold
attr source  sum(connect)
attr title  "number of active sessions, vector"
vector 250  University.whostFTP.tcpApp[0]  sentPk:vector(packetBytes)  ETV
attr interpolationmode  none
attr source  sentPk
attr title  "packets sent, vector(packetBytes)"
vector 152  University.whttpStudents[1].tcpApp[0]  numActiveSessions:vector  ETV
attr interpolationmode  sample-hold
attr source  sum(connect)
attr title  "number of active sessions, vector"
vector 379  University.whttpStudents[6].wlan[0].inputHook[0]  "thruput (bit/sec)"  ETV
vector 380  University.whttpStudents[6].wlan[0].inputHook[0]  packet/sec  ETV
vector 329  University.whttpStudents[1].wlan[0].inputHook[0]  "thruput (bit/sec)"  ETV
vector 330  University.whttpStudents[1].wlan[0].inputHook[0]  packet/sec  ETV
vector 150  University.whttpStudents[1].tcpApp[0]  sentPk:vector(packetBytes)  ETV
attr interpolationmode  none
attr source  sentPk
attr title  "packets sent, vector(packetBytes)"
vector 188  University.whttpStudents[4].tcpApp[0]  numActiveSessions:vector  ETV
attr interpolationmode  sample-hold
attr source  sum(connect)
attr title  "number of active sessions, vector"
vector 186  University.whttpStudents[4].tcpApp[0]  sentPk:vector(packetBytes)  ETV
attr interpolationmode  none
attr source  sentPk
attr title  "packets sent, vector(packetBytes)"
vector 327  University.whttpStudents[1].wlan[0].outputHook[0]  "thruput (bit/sec)"  ETV
vector 328  University.whttpStudents[1].wlan[0].outputHook[0]  packet/sec  ETV
vector 359  University.whttpStudents[4].wlan[0].inputHook[0]  "thruput (bit/sec)"  ETV
vector 360  University.whttpStudents[4].wlan[0].inputHook[0]  packet/sec  ETV
vector 357  University.whttpStudents[4].wlan[0].outputHook[0]  "thruput (bit/sec)"  ETV
vector 358  University.whttpStudents[4].wlan[0].outputHook[0]  packet/sec  ETV
vector 149  University.whttpStudents[1].tcpApp[0]  rcvdPk:vector(packetBytes)  ETV
attr interpolationmode  none
attr source  rcvdPk
attr title  "packets received, vector(packetBytes)"
vector 151  University.whttpStudents[1].tcpApp[0]  endToEndDelay:vector  ETV
attr interpolationmode  none
attr source  messageAge(rcvdPk)
attr title  "end-to-end delay, vector"
attr unit  s
vector 140  University.whttpStudents[0].tcpApp[0]  numActiveSessions:vector  ETV
attr interpolationmode  sample-hold
attr source  sum(connect)
attr title  "number of active sessions, vector"
vector 319  University.whttpStudents[0].wlan[0].inputHook[0]  "thruput (bit/sec)"  ETV
vector 320  University.whttpStudents[0].wlan[0].inputHook[0]  packet/sec  ETV
vector 138  University.whttpStudents[0].tcpApp[0]  sentPk:vector(packetBytes)  ETV
attr interpolationmode  none
attr source  sentPk
attr title  "packets sent, vector(packetBytes)"
vector 185  University.whttpStudents[4].tcpApp[0]  rcvdPk:vector(packetBytes)  ETV
attr interpolationmode  none
attr source  rcvdPk
attr title  "packets received, vector(packetBytes)"
vector 187  University.whttpStudents[4].tcpApp[0]  endToEndDelay:vector  ETV
attr interpolationmode  none
attr source  messageAge(rcvdPk)
attr title  "end-to-end delay, vector"
attr unit  s
vector 317  University.whttpStudents[0].wlan[0].outputHook[0]  "thruput (bit/sec)"  ETV
vector 318  University.whttpStudents[0].wlan[0].outputHook[0]  packet/sec  ETV
vector 161  University.whttpStudents[2].tcpApp[0]  rcvdPk:vector(packetBytes)  ETV
attr interpolationmode  none
attr source  rcvdPk
attr title  "packets received, vector(packetBytes)"
vector 163  University.whttpStudents[2].tcpApp[0]  endToEndDelay:vector  ETV
attr interpolationmode  none
attr source  messageAge(rcvdPk)
attr title  "end-to-end delay, vector"
attr unit  s
vector 212  University.whttpStudents[6].tcpApp[0]  numActiveSessions:vector  ETV
attr interpolationmode  sample-hold
attr source  sum(connect)
attr title  "number of active sessions, vector"
vector 210  University.whttpStudents[6].tcpApp[0]  sentPk:vector(packetBytes)  ETV
attr interpolationmode  none
attr source  sentPk
attr title  "packets sent, vector(packetBytes)"
vector 377  University.whttpStudents[6].wlan[0].outputHook[0]  "thruput (bit/sec)"  ETV
vector 378  University.whttpStudents[6].wlan[0].outputHook[0]  packet/sec  ETV
vector 197  University.whttpStudents[5].tcpApp[0]  rcvdPk:vector(packetBytes)  ETV
attr interpolationmode  none
attr source  rcvdPk
attr title  "packets received, vector(packetBytes)"
vector 199  University.whttpStudents[5].tcpApp[0]  endToEndDelay:vector  ETV
attr interpolationmode  none
attr source  messageAge(rcvdPk)
attr title  "end-to-end delay, vector"
attr unit  s
vector 200  University.whttpStudents[5].tcpApp[0]  numActiveSessions:vector  ETV
attr interpolationmode  sample-hold
attr source  sum(connect)
attr title  "number of active sessions, vector"
vector 173  University.whttpStudents[3].tcpApp[0]  rcvdPk:vector(packetBytes)  ETV
attr interpolationmode  none
attr source  rcvdPk
attr title  "packets received, vector(packetBytes)"
vector 175  University.whttpStudents[3].tcpApp[0]  endToEndDelay:vector  ETV
attr interpolationmode  none
attr source  messageAge(rcvdPk)
attr title  "end-to-end delay, vector"
attr unit  s
vector 176  University.whttpStudents[3].tcpApp[0]  numActiveSessions:vector  ETV
attr interpolationmode  sample-hold
attr source  sum(connect)
attr title  "number of active sessions, vector"
vector 209  University.whttpStudents[6].tcpApp[0]  rcvdPk:vector(packetBytes)  ETV
attr interpolationmode  none
attr source  rcvdPk
attr title  "packets received, vector(packetBytes)"
vector 211  University.whttpStudents[6].tcpApp[0]  endToEndDelay:vector  ETV
attr interpolationmode  none
attr source  messageAge(rcvdPk)
attr title  "end-to-end delay, vector"
attr unit  s
vector 137  University.whttpStudents[0].tcpApp[0]  rcvdPk:vector(packetBytes)  ETV
attr interpolationmode  none
attr source  rcvdPk
attr title  "packets received, vector(packetBytes)"
vector 139  University.whttpStudents[0].tcpApp[0]  endToEndDelay:vector  ETV
attr interpolationmode  none
attr source  messageAge(rcvdPk)
attr title  "end-to-end delay, vector"
attr unit  s
vector 198  University.whttpStudents[5].tcpApp[0]  sentPk:vector(packetBytes)  ETV
attr interpolationmode  none
attr source  sentPk
attr title  "packets sent, vector(packetBytes)"
vector 174  University.whttpStudents[3].tcpApp[0]  sentPk:vector(packetBytes)  ETV
attr interpolationmode  none
attr source  sentPk
attr title  "packets sent, vector(packetBytes)"
vector 277  University.remoteR.eth[1].outputHook[0]  "thruput (bit/sec)"  ETV
vector 278  University.remoteR.eth[1].outputHook[0]  packet/sec  ETV
vector 315  University.CCTV.eth[0].inputHook[0]  "thruput (bit/sec)"  ETV
vector 316  University.CCTV.eth[0].inputHook[0]  packet/sec  ETV
64	16557 2180709 466046 222042723 5.015478139549 2427.255446806216 60557 10240 10240 620103680 6349861683200
65	2197266 2723442 466046 222042723 5.015478139549 2427.255446806216 60557 0.017080129996 0.061612718579 1087.1814030088 20.291774050872
82	4920708 2119594 462757 222043217 5.000321250055 2427.279980120877 60557 1400 1400 84779800 118691720000
83	7040302 2122416 469880 222043109 5.033597961692 2427.273597961692 60557 1400 1400 84779800 118691720000
84	9162718 2722568 462757 222043217 5.000321250055 2427.279980120877 60557 0.016345608434 0.191324022434 1082.3499272793 20.811862239614
101	11885286 31548 561047 221923504 6.342308859687 2426.092660011354 960 1 1 960 960
102	11916834 36503 561047 221923504 6.342308859687 2426.092660011354 960 1344 6090565 774987451 1.2726780612191e+15
103	11953337 43997 561047 221923504 6.342308859687 2426.092660011354 960 0.034818134469 0.070983205355 35.135408488602 1.3040766520055
104	11997334 14015 804987 221839847 8.455260703792 2425.392098929928 360 1048576 1048576 377487360 3.9582418599936e+14
105	12011349 11855 804987 221839847 8.455260703792 2425.392098929928 360 1 1 360 360
106	12023204 16502 804987 221839847 8.455260703792 2425.392098929928 360 2.039743255347 14.180286232913 2352.9379980948 16248.648327967
119	12039706 2182974 470860 222043123 5.03836667622 2427.27836667622 60557 10240 10240 620103680 6349861683200
137	14222680 4409 2907021 219630242 26.604090963294 2397.168724168923 116 1344 4604196 99409464 1.7392035291959e+14
138	14227089 3801 1165632 219602426 10.779135680434 2396.804565556185 116 1 1 116 116
139	14230890 5327 2907021 219630242 26.604090963294 2397.168724168923 116 0.048493973623 31.856948536714 571.45004413916 5871.6458778212
140	14236217 7612 1155618 219630242 10.725604460364 2397.168724168923 232 0 1 116 116
149	14243829 4570 1083094 220770802 10.288799347545 2410.889573949979 120 4404 4373643 83402005 1.0775510792191e+14
150	14248399 3953 815753 220270156 8.667609257898 2407.552113921293 120 1 1 120 120
151	14252352 5518 1083094 220770802 10.288799347545 2410.889573949979 120 0.143491360872 18.755746499853 478.69824323401 4191.5051319564
152	14257870 7908 812834 220770802 8.61878512217 2410.889573949979 240 0 1 120 120
161	14265778 4350 1610719 221136029 13.194761061132 2415.71753816236 115 6939 4920927 90005642 1.5481407152062e+14
162	14270128 3757 559102 221052732 6.307454613192 2415.105994020167 115 1 1 115 115
163	14273885 5253 1610719 221136029 13.194761061132 2415.71753816236 115 0.151035443227 21.732489925078 487.61930302067 4693.7307251066
164	14279138 7514 557013 221136029 6.261011631816 2415.71753816236 230 0 1 115 115
173	14286652 4595 2253828 217715136 18.597721052624 2365.372976759118 121 10039 4195770 102305208 1.7333040302799e+14
174	14291247 3936 5378147 215780858 53.815941249763 2354.094923209753 120 1 1 120 120
175	14295183 5549 2253828 217715136 18.597721052624 2365.372976759118 121 0.148441365894 17.771441819636 540.67356186062 5155.3436521331
176	14300732 8031 2253828 217715136 18.597721052624 2365.372976759118 241 -1 0 -121 121
185	14308763 4524 1275737 220853342 11.292486343486 2411.330324959748 119 3681 3940521 94928493 1.4753266566323e+14
186	14313287 3912 825386 220540729 8.778094198309 2409.867586040685 119 1 1 119 119
187	14317199 5458 1275737 220853342 11.292486343486 2411.330324959748 119 0.099322353697 33.827824807356 552.94291746992 6405.8250550492
188	14322657 7818 819349 220853342 8.718985230818 2411.330324959748 238 0 1 119 119
197	14330475 4642 2147017 221740009 18.11956587733 2422.610672190641 122 4685 3984541 96102523 1.4198864562161e+14
198	14335117 4019 3234502 221909791 28.840962553735 2426.028361146942 122 1 1 122 122
199	14339136 5601 2147017 221740009 18.11956587733 2422.610672190641 122 0.143817712845 19.400680114317 570.47683874316 5555.1504571871
200	14344737 8153 2147017 221892807 18.11956587733 2425.95210336339 244 -1 0 -122 122
209	14352890 4233 2452265 221698078 20.603837532882 2421.562736592684 111 3754 5536392 102131840 1.9094420809085e+14
210	14357123 3654 1812739 221202279 15.760534538675 2417.33181389866 111 1 1 111 111
211	14360777 5096 2452265 221698078 20.603837532882 2421.562736592684 111 0.097696030374 33.81463783586 575.94924874423 6491.4796792506
212	14365873 7305 1810400 221698078 15.710693147455 2421.562736592684 222 0 1 111 111
221	14373178 5219 742014 221722359 7.653139313228 2422.244963436976 137 3099 6090565 110074561 1.9014881123504e+14
222	14378397 4516 581552 221516683 6.609846414377 2419.849565416875 137 1 1 137 137
223	14382913 6297 742014 221722359 7.653139313228 2422.244963436976 137 0.127932169878 25.838294834965 581.94731911327 5686.4779911474
224	14389210 9034 573238 221722359 6.552132600329 2422.244963436976 274 0 1 137 137
233	14398244 2177383 467352 222043300 5.021769645003 2427.289945010126 60446 1400 1400 84624400 118474160000
234	16575627 2182972 467718 222042988 5.023634512443 2427.263634512443 60557 1400 1400 84779800 118691720000
235	18758599 2780014 467352 222042169 5.021769645003 2427.249945010126 60445 0.016320215862 0.177600164203 1634.3212455394 98.805583676963
249	21538613 11864 805949 221841313 8.467965246431 2425.404857472567 360 1 1 360 360
250	21550477 14025 810063 221843165 8.562736356717 2425.499619582853 360 1048576 1048576 377487360 3.9582418599936e+14
251	21564502 16512 805949 221841313 8.467965246431 2425.404857472567 360 2.066479679939 17.194446009882 2385.3179662162 16798.067746026
252	21581014 24087 805949 221842322 8.467965246431 2425.452451516433 720 -1 0 -360 360
273	21605101 102689 547690 222033445 5.022630745927 2425.889554628358 2414 285600 11458754.090499 7373272831.242 4.074485956327e+16
274	21707790 98030 547690 222033445 5.022630745927 2425.889554628358 2414 25 972.53303921819 880747.13213837 457638255.26176
275	21805820 108013 547591 221990420 5.02279553945 2425.584023454211 2409 285600 6926663.8314865 4026087739.128 1.1860759528755e+16
276	21913833 105982 547591 221990420 5.02279553945 2425.584023454211 2409 25 927.29737097437 877269.54980388 452959696.14989
277	22019815 877 22335274 219826569 120.03837248622 2280.75837248622 19 1.8660446517827 1.8660446517827 35.454848383872 66.160330206492
278	22020692 934 22335274 219826569 120.03837248622 2280.75837248622 19 0.0083305564811729 0.0083305564811729 0.15828057314229 0.0013185652544342
279	22021626 94477 548374 222037118 5.03848880622 2426.038611846219 2422 2077600 2089367.2027084 5031963423.0587 1.0454441052234e+16
280	22116103 84797 548374 222037118 5.03848880622 2426.038611846219 2422 175 176 423870.97834717 74181113.378592
281	22200900 94557 547593 222037120 5.02279553945 2426.038611846219 2422 2363200 8769392 9078040541.3237 3.9152693367879e+16
282	22295457 84998 547593 222037120 5.02279553945 2426.038611846219 2422 200 1122 1305228.948322 837735407.26277
283	22380455 102691 547688 222033443 5.022630745927 2425.889554628358 2414 285600 11458754.090499 7373229946.5039 4.0744580227009e+16
284	22483146 98030 547688 222033443 5.022630745927 2425.889554628358 2414 25 972.53303921819 880555.67128562 457471390.29219
285	22581176 93809 548395 222037112 5.038597961692 2426.038597961692 2422 285600 13266776 7980259144 5.0161033815753e+16
286	22674985 84547 548395 222037112 5.038597961692 2426.038597961692 2422 25 1167 932043 527843817
287	22759532 102491 547315 222037339 5.009493472886 2426.050459806308 2420 2350573.3630471 8608848.0808775 9070388965.5723 3.9123903504847e+16
288	22862023 97040 547315 222037339 5.009493472886 2426.050459806308 2420 200 1107.1371638213 1304165.6788721 836324578.80672
289	22959063 104555 553039 222028169 5.116991964583 2425.755818668273 2390 266573.04318676 306008.69505098 682566416.61049 1.9494478472202e+14
290	23063618 101218 553039 222028169 5.116991964583 2425.755818668273 2390 23.334475068869 26.786475407123 59748.460837753 1493740.7616388
291	23164836 92155 548393 222037110 5.038597961692 2426.038597961692 2422 285600 285600 691723200 1.9755614592e+14
292	23256991 82467 548393 222037110 5.038597961692 2426.038597961692 2422 25 25 60550 1513750
293	23339458 111465 548923 221945236 5.032826872783 2425.357242618209 2387 258.96416035899 7469988.4570063 3321790280.9242 9.6666457858811e+15
294	23450923 111342 548923 221945236 5.032826872783 2425.357242618209 2387 0.80926300112186 902.30890175954 813664.02773764 408074433.29772
295	23562265 111195 551402 221991123 5.121811444413 2425.586291259524 2378 484.34694761715 12816473.918424 7205045123.5121 4.488666075092e+16
296	23673460 111093 551402 221991123 5.121811444413 2425.586291259524 2378 1.5135842113036 1139.986650697 861348.69723943 476039651.04095
297	23784553 100650 547317 222015329 5.009493472886 2425.695446806216 2417 1968140.8713033 2149324.7651114 5021698227.1846 1.0434015438206e+16
298	23885203 94425 547317 222015329 5.009493472886 2425.695446806216 2417 165.84354170835 180.97682475119 422986.54771061 74029183.376064
303	23979628 100650 547322 222015334 5.009493472886 2425.695446806216 2417 1968140.8713033 2149324.7651114 5021698227.1846 1.0434015438206e+16
304	24080278 94425 547322 222015334 5.009493472886 2425.695446806216 2417 165.84354170835 180.97682475119 422986.54771061 74029183.376064
305	24174703 92155 548114 222037065 5.033597961692 2426.033597961692 2422 285600 285600 691723200 1.9755614592e+14
306	24266858 82467 548114 222037065 5.033597961692 2426.033597961692 2422 25 25 60550 1513750
307	24349325 104555 553182 222029183 5.121991964583 2425.760818668273 2390 266573.04318676 306008.69505098 682566416.61049 1.9494478472202e+14
308	24453880 101218 553182 222029183 5.121991964583 2425.760818668273 2390 23.334475068869 26.786475407123 59748.460837753 1493740.7616388
309	24555098 111129 551380 221990548 5.119490371275 2425.584086986386 2378 484.34694761715 22506867.900228 7650463340.5165 5.3137248239522e+16
310	24666227 111002 551380 221990548 5.119490371275 2425.584086986386 2378 1.5135842113036 1935.6900315036 898462.66774178 539930328.1012
311	24777229 111485 549440 221950452 5.056839104509 2425.381371649935 2387 258.9396848832 7469988.4570063 3320914852.167 9.6623104289953e+15
312	24888714 111362 549440 221950452 5.056839104509 2425.381371649935 2387 0.80918651525999 902.30890175954 813559.73467673 407970786.13903
313	25000076 92155 548311 222037079 5.03836667622 2426.03836667622 2422 2077600 2077824 5031951680 1.045439211902e+16
314	25092231 82467 548311 222037079 5.03836667622 2426.03836667622 2422 175 176 423870 74180770
315	25174698 877 22335281 219826576 120.03837829622 2280.75837829622 19 1.8660446517827 1.8660446517827 35.454848383872 66.160330206492
316	25175575 934 22335281 219826576 120.03837829622 2280.75837829622 19 0.0083305564811729 0.0083305564811729 0.15828057314229 0.0013185652544342
317	25176509 26029 1375563 219601233 10.725604460364 2393.905350365965 558 17.59188417898 237424.21713597 19428061.652281 2229649744638.4
318	25202538 26076 1375563 219601233 10.725604460364 2393.905350365965 558 0.054974638059312 741.95067854992 60698.790895056 21764076.282526
319	25228614 30843 1155876 220437342 8.619945177646 2401.770340467215 660 4.2634452145563 8639052.5453013 732015402.03262 3.160919291278e+15
320	25259457 30982 1155876 220437342 8.619945177646 2401.770340467215 660 0.019033237564983 719.92104544177 61350.979673596 22109296.567661
327	25290439 23563 964319 220694691 8.61878512217 2409.543630933127 500 12.886790423116 205342.16590577 15483400.19157 1605337900601.4
328	25314002 23649 964319 220694691 8.61878512217 2409.543630933127 500 0.040271220072236 641.69426845554 48370.791381228 15666954.710798
329	25337651 28316 813050 220706219 6.556101371357 2409.59441128409 601 5.1829199968889 7700331.2214664 590280719.93438 2.2892300650745e+15
330	25365967 28472 813050 220706219 6.556101371357 2409.59441128409 601 0.023138035700397 641.69426845554 49562.649915876 16048161.990413
337	25394439 22093 713774 221051536 6.261011631816 2410.778646545427 474 3.6322460186058 283722.46051082 16177589.446927 1935996254923.3
338	25416532 22135 713774 221051536 6.261011631816 2410.778646545427 474 0.011350768808143 886.63268909631 50542.554614199 18897932.24351
339	25438667 27235 718788 221052728 6.307454613192 2410.778646545427 583 6.5947445298824 10639592.269156 619226632.33068 2.7794531082773e+15
340	25465902 27395 718788 221052728 6.307454613192 2410.778646545427 583 0.029440823794118 886.63268909631 51939.618599222 19447097.13892
347	25493297 25612 557589 217701561 5.275718646022 2364.310395500212 550 20.216724003663 273249.91583242 19411691.093987 2297119898253.7
348	25518909 25702 557589 217701561 5.275718646022 2364.310395500212 550 0.063177262511446 853.9059869763 60646.960149227 22422661.536611
349	25544611 30962 557585 220437354 5.275718646022 2401.770340474698 663 6.7697548753191 10298179.230515 724749689.6618 3.1983961287708e+15
350	25575573 31114 557585 220437354 5.275718646022 2401.770340474698 663 0.030222119979103 859.11330759508 60756.859722483 22364791.466624
357	25606687 25166 974292 220752463 8.718985230818 2409.804831612337 539 35.810028056653 284078.85449588 17080066.901487 1852462734696
358	25631853 25218 974292 220752463 8.718985230818 2409.804831612337 539 0.11190633767704 887.74642029963 53361.69037156 18080290.748409
359	25657071 30188 965652 220765968 8.619945189169 2409.867586040685 645 5.5392794419131 10649043.165742 650528766.97591 2.5673089422908e+15