file 62678776 1471641237                                        
version 2
run _8to13on-0-20160819-23:01:49-10146
attr configname _8to13on
attr datetime 20160819-23:01:49
attr experiment _8to13on
attr inifile omnetpp.ini
attr iterationvars $0=8
attr iterationvars2 "$0=8, $repetition=0"
attr measurement $0=8
attr network University
attr processid 10146
attr repetition 0
attr replication #0
attr resultdir results
attr runnumber 0
attr seedset 0

vector 234  University.whostVideoConf.udpApp[0]  sentPk:vector(packetBytes)  ETV
attr interpolationmode  none
attr source  sentPk
attr title  "packets sent, vector(packetBytes)"
vector 233  University.whostVideoConf.udpApp[0]  rcvdPk:vector(packetBytes)  ETV
attr interpolationmode  none
attr source  rcvdPk
attr title  "packets received, vector(packetBytes)"
vector 235  University.whostVideoConf.udpApp[0]  rcvdPkLifetime:vector  ETV
attr interpolationmode  none
attr source  messageAge(rcvdPk)
attr title  "received packet lifetime, vector"
attr unit  s
vector 64  University.ccTVMonitoringHost.udpApp[0]  rcvdPk:vector(packetBytes)  ETV
attr interpolationmode  none
attr source  rcvdPk
attr title  "packets received, vector(packetBytes)"
vector 65  University.ccTVMonitoringHost.udpApp[0]  endToEndDelay:vector  ETV
attr interpolationmode  none
attr source  messageAge(rcvdPk)
attr title  "end-to-end delay, vector"
attr unit  s
vector 82  University.profLaptop.udpApp[0]  rcvdPk:vector(packetBytes)  ETV
attr interpolationmode  none
attr source  rcvdPk
attr title  "packets received, vector(packetBytes)"
vector 84  University.profLaptop.udpApp[0]  rcvdPkLifetime:vector  ETV
attr interpolationmode  none
attr source  messageAge(rcvdPk)
attr title  "received packet lifetime, vector"
attr unit  s
vector 83  University.profLaptop.udpApp[0]  sentPk:vector(packetBytes)  ETV
attr interpolationmode  none
attr source  sentPk
attr title  "packets sent, vector(packetBytes)"
vector 119  University.CCTV.udpApp[0]  sentPk:vector(packetBytes)  ETV
attr interpolationmode  none
attr source  sentPk
attr title  "packets sent, vector(packetBytes)"
vector 397  University.whostVideoConf.wlan[0].outputHook[0]  "thruput (bit/sec)"  ETV
vector 398  University.whostVideoConf.wlan[0].outputHook[0]  packet/sec  ETV
vector 273  University.remoteR.eth[0].outputHook[0]  "thruput (bit/sec)"  ETV
vector 274  University.remoteR.eth[0].outputHook[0]  packet/sec  ETV
vector 287  University.mainR.ppp[0].inputHook[0]  "thruput (bit/sec)"  ETV
vector 288  University.mainR.ppp[0].inputHook[0]  packet/sec  ETV
vector 297  University.mainR.ppp[3].outputHook[0]  "thruput (bit/sec)"  ETV
vector 298  University.mainR.ppp[3].outputHook[0]  packet/sec  ETV
vector 303  University.ccTVMonitoringHost.ppp[0].inputHook[0]  "thruput (bit/sec)"  ETV
vector 304  University.ccTVMonitoringHost.ppp[0].inputHook[0]  packet/sec  ETV
vector 429  University.accessPoint.eth[0].inputHook[0]  "thruput (bit/sec)"  ETV
vector 430  University.accessPoint.eth[0].inputHook[0]  packet/sec  ETV
vector 417  University.accessPoint.wlan[0].outputHook[0]  "thruput (bit/sec)"  ETV
vector 418  University.accessPoint.wlan[0].outputHook[0]  packet/sec  ETV
vector 305  University.profLaptop.ppp[0].outputHook[0]  "thruput (bit/sec)"  ETV
vector 306  University.profLaptop.ppp[0].outputHook[0]  packet/sec  ETV
vector 313  University.CCTV.eth[0].outputHook[0]  "thruput (bit/sec)"  ETV
vector 314  University.CCTV.eth[0].outputHook[0]  packet/sec  ETV
vector 279  University.remoteR.eth[1].inputHook[0]  "thruput (bit/sec)"  ETV
vector 280  University.remoteR.eth[1].inputHook[0]  packet/sec  ETV
vector 281  University.remoteR.ppp[0].outputHook[0]  "thruput (bit/sec)"  ETV
vector 282  University.remoteR.ppp[0].outputHook[0]  packet/sec  ETV
vector 291  University.mainR.ppp[1].inputHook[0]  "thruput (bit/sec)"  ETV
vector 292  University.mainR.ppp[1].inputHook[0]  packet/sec  ETV
vector 285  University.mainR.ppp[0].outputHook[0]  "thruput (bit/sec)"  ETV
vector 286  University.mainR.ppp[0].outputHook[0]  packet/sec  ETV
vector 419  University.accessPoint.wlan[0].inputHook[0]  "thruput (bit/sec)"  ETV
vector 420  University.accessPoint.wlan[0].inputHook[0]  packet/sec  ETV
vector 427  University.accessPoint.eth[0].outputHook[0]  "thruput (bit/sec)"  ETV
vector 428  University.accessPoint.eth[0].outputHook[0]  packet/sec  ETV
vector 275  University.remoteR.eth[0].inputHook[0]  "thruput (bit/sec)"  ETV
vector 276  University.remoteR.eth[0].inputHook[0]  packet/sec  ETV
vector 283  University.remoteR.ppp[0].inputHook[0]  "thruput (bit/sec)"  ETV
vector 284  University.remoteR.ppp[0].inputHook[0]  packet/sec  ETV
vector 295  University.mainR.ppp[2].inputHook[0]  "thruput (bit/sec)"  ETV
vector 296  University.mainR.ppp[2].inputHook[0]  packet/sec  ETV
vector 399  University.whostVideoConf.wlan[0].inputHook[0]  "thruput (bit/sec)"  ETV
vector 400  University.whostVideoConf.wlan[0].inputHook[0]  packet/sec  ETV
vector 293  University.mainR.ppp[2].outputHook[0]  "thruput (bit/sec)"  ETV
vector 294  University.mainR.ppp[2].outputHook[0]  packet/sec  ETV
vector 311  University.Server.ppp[0].inputHook[0]  "thruput (bit/sec)"  ETV
vector 312  University.Server.ppp[0].inputHook[0]  packet/sec  ETV
vector 309  University.Server.ppp[0].outputHook[0]  "thruput (bit/sec)"  ETV
vector 310  University.Server.ppp[0].outputHook[0]  packet/sec  ETV
vector 289  University.mainR.ppp[1].outputHook[0]  "thruput (bit/sec)"  ETV
vector 290  University.mainR.ppp[1].outputHook[0]  packet/sec  ETV
vector 307  University.profLaptop.ppp[0].inputHook[0]  "thruput (bit/sec)"  ETV
vector 308  University.profLaptop.ppp[0].inputHook[0]  packet/sec  ETV
vector 407  University.whostFTP.wlan[0].outputHook[0]  "thruput (bit/sec)"  ETV
vector 408  University.whostFTP.wlan[0].outputHook[0]  packet/sec  ETV
vector 409  University.whostFTP.wlan[0].inputHook[0]  "thruput (bit/sec)"  ETV
vector 410  University.whostFTP.wlan[0].inputHook[0]  packet/sec  ETV
vector 188  University.whttpStudents[4].tcpApp[0]  numActiveSessions:vector  ETV
attr interpolationmode  sample-hold
attr source  sum(connect)
attr title  "number of active sessions, vector"
vector 186  University.whttpStudents[4].tcpApp[0]  sentPk:vector(packetBytes)  ETV
attr interpolationmode  none
attr source  sentPk
attr title  "packets sent, vector(packetBytes)"
vector 101  University.Server.tcpApp[0]  rcvdPk:vector(packetBytes)  ETV
attr interpolationmode  none
attr source  rcvdPk
attr title  "packets received, vector(packetBytes)"
vector 103  University.Server.tcpApp[0]  endToEndDelay:vector  ETV
attr interpolationmode  none
attr source  messageAge(rcvdPk)
attr title  "end-to-end delay, vector"
attr unit  s
vector 102  University.Server.tcpApp[0]  sentPk:vector(packetBytes)  ETV
attr interpolationmode  none
attr source  sentPk
attr title  "packets sent, vector(packetBytes)"
vector 359  University.whttpStudents[4].wlan[0].inputHook[0]  "thruput (bit/sec)"  ETV
vector 360  University.whttpStudents[4].wlan[0].inputHook[0]  packet/sec  ETV
vector 357  University.whttpStudents[4].wlan[0].outputHook[0]  "thruput (bit/sec)"  ETV
vector 358  University.whttpStudents[4].wlan[0].outputHook[0]  packet/sec  ETV
vector 164  University.whttpStudents[2].tcpApp[0]  numActiveSessions:vector  ETV
attr interpolationmode  sample-hold
attr source  sum(connect)
attr title  "number of active sessions, vector"
vector 379  University.whttpStudents[6].wlan[0].inputHook[0]  "thruput (bit/sec)"  ETV
vector 380  University.whttpStudents[6].wlan[0].inputHook[0]  packet/sec  ETV
vector 369  University.whttpStudents[5].wlan[0].inputHook[0]  "thruput (bit/sec)"  ETV
vector 370  University.whttpStudents[5].wlan[0].inputHook[0]  packet/sec  ETV
vector 329  University.whttpStudents[1].wlan[0].inputHook[0]  "thruput (bit/sec)"  ETV
vector 330  University.whttpStudents[1].wlan[0].inputHook[0]  packet/sec  ETV
vector 319  University.whttpStudents[0].wlan[0].inputHook[0]  "thruput (bit/sec)"  ETV
vector 320  University.whttpStudents[0].wlan[0].inputHook[0]  packet/sec  ETV
vector 389  University.whttpStudents[7].wlan[0].inputHook[0]  "thruput (bit/sec)"  ETV
vector 390  University.whttpStudents[7].wlan[0].inputHook[0]  packet/sec  ETV
vector 349  University.whttpStudents[3].wlan[0].inputHook[0]  "thruput (bit/sec)"  ETV
vector 350  University.whttpStudents[3].wlan[0].inputHook[0]  packet/sec  ETV
vector 339  University.whttpStudents[2].wlan[0].inputHook[0]  "thruput (bit/sec)"  ETV
vector 340  University.whttpStudents[2].wlan[0].inputHook[0]  packet/sec  ETV
vector 162  University.whttpStudents[2].tcpApp[0]  sentPk:vector(packetBytes)  ETV
attr interpolationmode  none
attr source  sentPk
attr title  "packets sent, vector(packetBytes)"
vector 161  University.whttpStudents[2].tcpApp[0]  rcvdPk:vector(packetBytes)  ETV
attr interpolationmode  none
attr source  rcvdPk
attr title  "packets received, vector(packetBytes)"
vector 163  University.whttpStudents[2].tcpApp[0]  endToEndDelay:vector  ETV
attr interpolationmode  none
attr source  messageAge(rcvdPk)
attr title  "end-to-end delay, vector"
attr unit  s
vector 185  University.whttpStudents[4].tcpApp[0]  rcvdPk:vector(packetBytes)  ETV
attr interpolationmode  none
attr source  rcvdPk
attr title  "packets received, vector(packetBytes)"
vector 187  University.whttpStudents[4].tcpApp[0]  endToEndDelay:vector  ETV
attr interpolationmode  none
attr source  messageAge(rcvdPk)
attr title  "end-to-end delay, vector"
attr unit  s
vector 140  University.whttpStudents[0].tcpApp[0]  numActiveSessions:vector  ETV
attr interpolationmode  sample-hold
attr source  sum(connect)
attr title  "number of active sessions, vector"
vector 138  University.whttpStudents[0].tcpApp[0]  sentPk:vector(packetBytes)  ETV
attr interpolationmode  none
attr source  sentPk
attr title  "packets sent, vector(packetBytes)"
vector 137  University.whttpStudents[0].tcpApp[0]  rcvdPk:vector(packetBytes)  ETV
attr interpolationmode  none
attr source  rcvdPk
attr title  "packets received, vector(packetBytes)"
vector 139  University.whttpStudents[0].tcpApp[0]  endToEndDelay:vector  ETV
attr interpolationmode  none
attr source  messageAge(rcvdPk)
attr title  "end-to-end delay, vector"
attr unit  s
vector 212  University.whttpStudents[6].tcpApp[0]  numActiveSessions:vector  ETV
attr interpolationmode  sample-hold
attr source  sum(connect)
attr title  "number of active sessions, vector"
vector 210  University.whttpStudents[6].tcpApp[0]  sentPk:vector(packetBytes)  ETV
attr interpolationmode  none
attr source  sentPk
attr title  "packets sent, vector(packetBytes)"
vector 209  University.whttpStudents[6].tcpApp[0]  rcvdPk:vector(packetBytes)  ETV
attr interpolationmode  none
attr source  rcvdPk
attr title  "packets received, vector(packetBytes)"
vector 211  University.whttpStudents[6].tcpApp[0]  endToEndDelay:vector  ETV
attr interpolationmode  none
attr source  messageAge(rcvdPk)
attr title  "end-to-end delay, vector"
attr unit  s
vector 337  University.whttpStudents[2].wlan[0].outputHook[0]  "thruput (bit/sec)"  ETV
vector 338  University.whttpStudents[2].wlan[0].outputHook[0]  packet/sec  ETV
vector 152  University.whttpStudents[1].tcpApp[0]  numActiveSessions:vector  ETV
attr interpolationmode  sample-hold
attr source  sum(connect)
attr title  "number of active sessions, vector"
vector 150  University.whttpStudents[1].tcpApp[0]  sentPk:vector(packetBytes)  ETV
attr interpolationmode  none
attr source  sentPk
attr title  "packets sent, vector(packetBytes)"
vector 104  University.Server.tcpApp[1]  rcvdPk:vector(packetBytes)  ETV
attr interpolationmode  none
attr source  rcvdPk
attr title  "packets received, vector(packetBytes)"
vector 106  University.Server.tcpApp[1]  endToEndDelay:vector  ETV
attr interpolationmode  none
attr source  messageAge(rcvdPk)
attr title  "end-to-end delay, vector"
attr unit  s
vector 105  University.Server.tcpApp[1]  sentPk:vector(packetBytes)  ETV
attr interpolationmode  none
attr source  sentPk
attr title  "packets sent, vector(packetBytes)"
vector 249  University.whostFTP.tcpApp[0]  rcvdPk:vector(packetBytes)  ETV
attr interpolationmode  none
attr source  rcvdPk
attr title  "packets received, vector(packetBytes)"
vector 251  University.whostFTP.tcpApp[0]  endToEndDelay:vector  ETV
attr interpolationmode  none
attr source  messageAge(rcvdPk)
attr title  "end-to-end delay, vector"
attr unit  s
vector 252  University.whostFTP.tcpApp[0]  numActiveSessions:vector  ETV
attr interpolationmode  sample-hold
attr source  sum(connect)
attr title  "number of active sessions, vector"
vector 250  University.whostFTP.tcpApp[0]  sentPk:vector(packetBytes)  ETV
attr interpolationmode  none
attr source  sentPk
attr title  "packets sent, vector(packetBytes)"
vector 377  University.whttpStudents[6].wlan[0].outputHook[0]  "thruput (bit/sec)"  ETV
vector 378  University.whttpStudents[6].wlan[0].outputHook[0]  packet/sec  ETV
vector 327  University.whttpStudents[1].wlan[0].outputHook[0]  "thruput (bit/sec)"  ETV
vector 328  University.whttpStudents[1].wlan[0].outputHook[0]  packet/sec  ETV
vector 176  University.whttpStudents[3].tcpApp[0]  numActiveSessions:vector  ETV
attr interpolationmode  sample-hold
attr source  sum(connect)
attr title  "number of active sessions, vector"
vector 174  University.whttpStudents[3].tcpApp[0]  sentPk:vector(packetBytes)  ETV
attr interpolationmode  none
attr source  sentPk
attr title  "packets sent, vector(packetBytes)"
vector 173  University.whttpStudents[3].tcpApp[0]  rcvdPk:vector(packetBytes)  ETV
attr interpolationmode  none
attr source  rcvdPk
attr title  "packets received, vector(packetBytes)"
vector 175  University.whttpStudents[3].tcpApp[0]  endToEndDelay:vector  ETV
attr interpolationmode  none
attr source  messageAge(rcvdPk)
attr title  "end-to-end delay, vector"
attr unit  s
vector 347  University.whttpStudents[3].wlan[0].outputHook[0]  "thruput (bit/sec)"  ETV
vector 348  University.whttpStudents[3].wlan[0].outputHook[0]  packet/sec  ETV
vector 317  University.whttpStudents[0].wlan[0].outputHook[0]  "thruput (bit/sec)"  ETV
vector 318  University.whttpStudents[0].wlan[0].outputHook[0]  packet/sec  ETV
vector 200  University.whttpStudents[5].tcpApp[0]  numActiveSessions:vector  ETV
attr interpolationmode  sample-hold
attr source  sum(connect)
attr title  "number of active sessions, vector"
vector 198  University.whttpStudents[5].tcpApp[0]  sentPk:vector(packetBytes)  ETV
attr interpolationmode  none
attr source  sentPk
attr title  "packets sent, vector(packetBytes)"
vector 367  University.whttpStudents[5].wlan[0].outputHook[0]  "thruput (bit/sec)"  ETV
vector 368  University.whttpStudents[5].wlan[0].outputHook[0]  packet/sec  ETV
vector 224  University.whttpStudents[7].tcpApp[0]  numActiveSessions:vector  ETV
attr interpolationmode  sample-hold
attr source  sum(connect)
attr title  "number of active sessions, vector"
vector 222  University.whttpStudents[7].tcpApp[0]  sentPk:vector(packetBytes)  ETV
attr interpolationmode  none
attr source  sentPk
attr title  "packets sent, vector(packetBytes)"
vector 387  University.whttpStudents[7].wlan[0].outputHook[0]  "thruput (bit/sec)"  ETV
vector 388  University.whttpStudents[7].wlan[0].outputHook[0]  packet/sec  ETV
vector 149  University.whttpStudents[1].tcpApp[0]  rcvdPk:vector(packetBytes)  ETV
attr interpolationmode  none
attr source  rcvdPk
attr title  "packets received, vector(packetBytes)"
vector 151  University.whttpStudents[1].tcpApp[0]  endToEndDelay:vector  ETV
attr interpolationmode  none
attr source  messageAge(rcvdPk)
attr title  "end-to-end delay, vector"
attr unit  s
vector 197  University.whttpStudents[5].tcpApp[0]  rcvdPk:vector(packetBytes)  ETV
attr interpolationmode  none
attr source  rcvdPk
attr title  "packets received, vector(packetBytes)"
vector 199  University.whttpStudents[5].tcpApp[0]  endToEndDelay:vector  ETV
attr interpolationmode  none
attr source  messageAge(rcvdPk)
attr title  "end-to-end delay, vector"
attr unit  s
vector 221  University.whttpStudents[7].tcpApp[0]  rcvdPk:vector(packetBytes)  ETV
attr interpolationmode  none
attr source  rcvdPk
attr title  "packets received, vector(packetBytes)"
vector 223  University.whttpStudents[7].tcpApp[0]  endToEndDelay:vector  ETV
attr interpolationmode  none
attr source  messageAge(rcvdPk)
attr title  "end-to-end delay, vector"
attr unit  s
vector 277  University.remoteR.eth[1].outputHook[0]  "thruput (bit/sec)"  ETV
vector 278  University.remoteR.eth[1].outputHook[0]  packet/sec  ETV
vector 315  University.CCTV.eth[0].inputHook[0]  "thruput (bit/sec)"  ETV
vector 316  University.CCTV.eth[0].inputHook[0]  packet/sec  ETV
64	16557 2171624 480391 191846450 5.015728467927 2426.695728467927 60543 10240 10240 619960320 6348393676800
65	2188181 2714762 480391 191846450 5.015728467927 2426.695728467927 60543 0.017080129996 0.070046203797 1061.908070448 18.979696562858
82	4902943 2113871 480403 191846494 5.021685134593 2426.701747801259 60511 1400 1400 84715400 118601560000
83	7016814 2116426 480440 191846513 5.033770629763 2426.713770629763 60543 1400 1400 84760200 118664280000
84	9133240 2712752 480403 191846494 5.021685134593 2426.701747801259 60511 0.018199962715 0.1563068908 1174.7132358599 23.693200343456
101	11845992 29002 621626 191402116 7.361405660633 2421.061110426646 884 1 1 884 884
102	11874994 33581 621626 191402116 7.361405660633 2421.061110426646 884 461 5215522 730147886 1.1873876591073e+15
103	11908575 40391 621626 191402116 7.361405660633 2421.061110426646 884 0.03468589217 0.067797099265 31.97189094207 1.1662831478989
104	11948966 9099 1082217 191674397 15.001473209728 2424.010506573788 234 1048576 1048576 245366784 2.5728572089958e+14
105	11958065 7695 1082217 191674397 15.001473209728 2424.010506573788 234 1 1 234 234
106	11965760 10843 1082217 191674397 15.001473209728 2424.010506573788 234 2.380000425955 26.350665713818 2365.5978423538 25884.304345838
119	11976603 2237512 480447 191846520 5.038648337931 2426.718648337931 60543 10240 10240 619960320 6348393676800
137	14214115 3980 853035 189437299 12.460048630999 2390.694112106329 105 20236 2855022 80255518 1.0977561227431e+14
138	14218095 3434 815002 186833036 11.881005100093 2364.906226163877 105 1 1 105 105
139	14221529 4812 853035 189437299 12.460048630999 2390.694112106329 105 0.305637496786 25.787885942452 608.45687350646 8208.8491221615
140	14226341 6871 813343 189437299 11.808017099728 2390.694112106329 210 0 1 105 105
149	14233212 4143 2648832 191017356 28.75092134266 2417.894418849004 109 17950 2457262 80119039 94005675945179
150	14237355 3587 1061056 190921962 14.737960405978 2417.188810715585 109 1 1 109 109
151	14240942 5013 2648832 191017356 28.75092134266 2417.894418849004 109 0.335382067926 31.744113436811 629.88780600744 7629.0865470551
152	14245955 7165 1055097 191017356 14.6550963959 2417.894418849004 218 0 1 109 109
161	14253120 3928 757656 189094776 9.091422261856 2388.101975239908 104 8028 5100804 83511093 1.7139062985777e+14
162	14257048 3419 743397 191182502 8.705403963038 2419.049235214486 105 1 1 105 105
163	14260467 4758 757656 189094776 9.091422261856 2388.101975239908 104 0.227064881174 30.327187450251 580.08273459575 8006.453933813
164	14265225 6820 741399 191168421 8.632787953244 2418.972074825905 209 0 1 105 105
173	14272045 4548 1402615 191197599 17.423767784231 2419.145041166114 119 10118 3837009 109212861 1.9503842952914e+14
174	14276593 3963 1382673 191378332 16.977142654186 2420.63993401897 120 1 1 120 120
175	14280556 5488 1402615 191197599 17.423767784231 2419.145041166114 119 0.227270271925 58.680041001128 817.33769668224 14769.035506086
176	14286044 7890 1380760 191373827 16.906075635224 2420.560101029306 239 0 1 120 120
185	14293934 3923 811129 189380992 11.696504126229 2390.233792298259 103 461 5215522 86347020 1.4382588095615e+14
186	14297857 3393 620630 188160360 7.326701672148 2382.438902228065 103 1 1 103 103
187	14301250 4748 811129 189380992 11.696504126229 2390.233792298259 103 0.072250806822 59.182489771612 712.0033559103 12742.225154027
188	14305998 6773 618998 189380992 7.254031574226 2390.233792298259 206 0 1 103 103
197	14312771 4371 2812494 191621971 31.139707299525 2422.800043689935 115 4523 5005600 87436279 1.4483999617786e+14
198	14317142 3771 2216270 191400167 25.160733748025 2421.026397482957 115 1 1 115 115
199	14320913 5285 2812494 191621971 31.139707299525 2422.800043689935 115 0.217794197167 32.957064192249 639.72681601751 9525.7966251671
200	14326198 7553 2213804 191621971 25.083168004874 2422.800043689935 230 0 1 115 115
209	14333751 4232 890063 190355521 13.217987450694 2407.395475515807 111 10712 3846814 100934056 1.628942407543e+14
210	14337983 3647 858047 190283316 12.664153763005 2406.67767628706 111 1 1 111 111
211	14341630 5100 890063 190355521 13.217987450694 2407.395475515807 111 0.421558873123 26.23670158468 777.53278902643 11032.598562077
212	14346730 7294 856334 190355521 12.591492793503 2407.395475515807 222 0 1 111 111
221	14354024 4403 2833280 191058309 32.002118154057 2418.302486598058 116 7506 4056238 96253433 1.4710634314239e+14
222	14358427 3810 2418931 189861990 27.200161074325 2402.614078713073 116 1 1 116 116
223	14362237 5324 2833280 191058309 32.002118154057 2418.302486598058 116 0.226780688481 23.737709416306 711.58791518663 8950.982032294
224	14367561 7616 2416143 191058309 27.125538964124 2418.302486598058 232 0 1 116 116
233	14375177 2146206 480279 191846338 5.010117697033 2426.690117697033 59750 1400 1400 83650000 117110000000
234	16521383 2176966 480089 191846113 5.003485171878 2426.683485171878 60543 1400 1400 84760200 118664280000
235	18698349 2704566 480279 191846338 5.010117697033 2426.690117697033 59750 0.016319744704 0.186653028977 1496.5496587811 77.403824990438
249	21402915 7689 1083316 191678684 15.039706490379 2424.048287909604 234 1 1 234 234
250	21410604 9099 1093273 191682867 15.188960039331 2424.196750984881 234 1048576 1048576 245366784 2.5728572089958e+14
251	21419703 10828 1083316 191678684 15.039706490379 2424.048287909604 234 2.417736761771 26.388420049634 2378.1580860658 26152.590191453
252	21430531 15630 1083316 191680820 15.039706490379 2424.120541964054 468 -1 0 -234 234
273	21446161 104850 595224 191844501 5.009727296429 2425.649727296429 2409 285990.48015611 11059802.794349 6900862288.4776 3.5345470045136e+16
274	21551011 101301 595224 191844501 5.009727296429 2425.649727296429 2409 33 1036.5424063246 751960.86881439 356029894.80751
275	21652312 107066 595695 191837716 5.043874132482 2425.403874132482 2407 291432 7278815.7659407 2927915873.2511 7.2035546547059e+15
276	21759378 104746 595695 191837716 5.043874132482 2425.403874132482 2407 28.851737931858 952.40252111767 750936.40010669 354629795.0516
277	21864124 895 18862884 189830097 120.038654147931 2280.758654147931 19 1.8660446517827 1.8660446517827 35.454848383872 66.160330206492
278	21865019 952 18862884 189830097 120.038654147931 2280.758654147931 19 0.0083305564811729 0.0083305564811729 0.15828057314229 0.0013185652544342
279	21865971 92027 595520 191826786 5.038770467931 2425.03889350793 2421 2077600 2089367.2027084 5029885823.0587 1.0450124630474e+16
280	21957998 82351 595520 191826786 5.038770467931 2425.03889350793 2421 175 176 423695.97834717 74150488.378592
281	22040349 92026 595522 191826788 5.038770467931 2425.03889350793 2421 2324392 9498160 7973640687.9634 2.9849798848791e+16
282	22132375 82397 595522 191826788 5.038770467931 2425.03889350793 2421 208 1134 1178408.9636384 695218516.08448
283	22214772 104826 595782 191844499 5.049727296429 2425.649727296429 2409 285990.48015611 11059802.794349 6900833536.3659 3.5351471663509e+16
284	22319598 101259 595782 191844499 5.049727296429 2425.649727296429 2409 33 1036.5424063246 751774.87822373 355968298.53402
285	22420857 93476 595528 191826779 5.038770629763 2425.038770629763 2421 287840 13839808 7482611832 4.4326663952214e+16
286	22514333 84062 595528 191826779 5.038770629763 2425.038770629763 2421 32 1175 801118 423619742
287	22598395 100582 595230 191818657 5.009775134597 2424.775931068295 2419 2368307.7320123 9411006.1277166 7967419448.2787 2.9757003905029e+16
288	22698977 94187 595230 191818657 5.009775134597 2424.775931068295 2419 201 1144.2452798551 1177518.2684291 694179269.8799
289	22793164 107332 598733 191833429 5.136685134593 2425.217721134592 2376 165413.64027473 316764.04009472 678240864.72792 1.9364819075252e+14
290	22900496 105523 598733 191833429 5.136685134593 2425.217721134592 2376 14.479485318166 27.727944686162 59369.82359313 1483805.7676542
291	23006019 91895 595526 191826777 5.038770629763 2425.038770629763 2421 285600 285600 691437600 1.9747457856e+14
292	23097914 82211 595526 191826777 5.038770629763 2425.038770629763 2421 25 25 60525 1513125
293	23180125 109893 598217 191819485 5.075134269284 2424.740753068319 2382 9953.3126913064 5757557.1123546 2222367523.321 5.5141272064057e+15
294	23290018 109535 598217 191819485 5.075134269284 2424.740753068319 2382 6.093177810873 932.34564616701 686285.29950271 315072262.77808
295	23399553 110233 595972 191831643 5.053301702288 2425.18671716805 2376 1949.8168994794 13186989.320437 6682955968.5096 3.9498471242282e+16
296	23509786 109965 595972 191831643 5.053301702288 2425.18671716805 2376 5.4033827214646 1120.2857431306 728804.42043977 378824352.36848
297	23619751 99177 595232 191823169 5.009775134597 2424.899325068213 2418 1981084.2458318 2157712.1319969 5023699267.6747 1.0437739405225e+16
298	23718928 92150 595232 191823169 5.009775134597 2424.899325068213 2418 166.89110563347 181.74798955499 423155.18607216 74055657.269123
303	23811078 99177 595237 191823174 5.009775134597 2424.899325068213 2418 1981084.2458318 2157712.1319969 5023699267.6747 1.0437739405225e+16
304	23910255 92150 595237 191823174 5.009775134597 2424.899325068213 2418 166.89110563347 181.74798955499 423155.18607216 74055657.269123
305	24002405 91895 595489 191826726 5.033770629763 2425.033770629763 2421 285600 285600 691437600 1.9747457856e+14
306	24094300 82211 595489 191826726 5.033770629763 2425.033770629763 2421 25 25 60525 1513125
307	24176511 107332 598738 191833452 5.141685134593 2425.222721134592 2376 165413.64027473 316764.04009472 678240864.72792 1.9364819075252e+14
308	24283843 105523 598738 191833452 5.141685134593 2425.222721134592 2376 14.479485318166 27.727944686162 59369.82359313 1483805.7676542
309	24389366 110393 598377 191831244 5.09913106442 2425.166250946436 2376 1949.8168994794 22785261.039257 7231335810.3449 4.8931586793931e+16
310	24499759 110047 598377 191831244 5.09913106442 2425.166250946436 2376 5.4029257368683 1928.0247249749 774516.89006804 450945449.42551
311	24609806 110240 598373 191820440 5.09913106442 2424.764749863455 2382 9953.3126913064 5764314.4683484 2222066213.3806 5.511653650409e+15
312	24720046 109824 598373 191820440 5.09913106442 2424.764749863455 2382 5.7775223966843 932.34564616701 686275.01764152 314685787.10798
313	24829870 94316 595496 191826747 5.038648337931 2425.038648337931 2421 2077600 2077824 5029874080 1.045007569726e+16
314	24924186 84632 595496 191826747 5.038648337931 2425.038648337931 2421 175 176 423695 74150145
315	25008818 895 18862891 189830104 120.038659957931 2280.758659957931 19 1.8660446517827 1.8660446517827 35.454848383872 66.160330206492
316	25009713 952 18862891 189830104 120.038659957931 2280.758659957931 19 0.0083305564811729 0.0083305564811729 0.15828057314229 0.0013185652544342
317	25010665 26657 2213543 189432487 11.808017099728 2389.645903521098 570 6.5460211242818 263958.67498909 14633367.071654 1321247473337.3
318	25037322 26693 2213543 189432487 11.808017099728 2389.645903521098 570 0.02045631601338 824.87085934091 45718.882886289 12896997.522239
319	25064015 30642 741570 190921782 7.25519163352 2402.61362865008 655 6.354804177274 9781256.5849838 546373909.67126 1.9237073813841e+15
320	25094657 30767 741570 190921782 7.25519163352 2402.61362865008 655 0.028369661505688 815.59113823469 45844.744571524 13479954.940527
327	25125424 29238 1191012 190921776 14.6550963959 2416.094264842905 629 8.9731589043656 226905.31755628 15527024.075664 1341374892962.1
328	25154662 29300 1191012 190921776 14.6550963959 2416.094264842905 629 0.028041121576142 709.07911736336 48508.347323751 13091627.761163
329	25183962 33614 741564 190921772 7.255191632395 2402.613628648955 722 5.1483052099338 8101213.1308343 577189638.88646 1.9890016647018e+15
330	25217576 33735 741564 190921772 7.255191632395 2402.613628648955 722 0.02298350540149 675.58602816005 48430.198593902 13934338.745106
337	25251311 26684 892414 191831754 8.632787953244 2425.198129977133 574 18.879867959807 234033.42819492 15578317.168023 1555541703230.8
338	25277995 26781 892414 191831754 8.632787953244 2425.198129977133 574 0.058999587374397 731.35446310914 48671.452528585 15185165.674118
339	25304776 31205 741625 191836016 7.255191621094 2425.343712640381 669 5.9762025390612 8483543.931486 585222081.14058 2.2721310424693e+15
340	25335981 31326 741625 191836016 7.255191621094 2425.343712640381 669 0.026679475620809 706.9619942905 49062.123358385 15887155.948145
347	25367307 36135 1482829 191817612 16.906075635224 2424.687647041087 772 19.171486524695 266180.18188111 20880512.276188 2005164373761.3
348	25403442 36137 1482829 191817612 16.906075635224 2424.687647041087 772 0.059910895389672 831.81306837848 65237.366057029 19572737.758163
349	25439579 39411 741582 191819742 7.255191638096 2424.778715438063 842 6.5698704155795 10037724.104754 787169171.845 3.0463309818958e+15
350	25478990 39501 741582 191819742 7.255191638096 2424.778715438063 842 0.02932977864098 836.47700872951 65991.875030148 21298156.686384
357	25518491 32732 735183 189364689 7.254031574226 2389.150921374853 701 3.0351552857154 231832.54283481 17370816.94892 1598340575480.9
358	25551223 32807 735183 189364689 7.254031574226 2389.150921374853 701 0.0094848602678605 724.47669635878 54271.076469432 15600798.363562