file 62538290 1471642451                                        
version 2
run _8to13on-7-20160819-23:17:31-10467
attr configname _8to13on
attr datetime 20160819-23:17:31
attr experiment _8to13on
attr inifile omnetpp.ini
attr iterationvars $0=8
attr iterationvars2 "$0=8, $repetition=7"
attr measurement $0=8
attr network University
attr processid 10467
attr repetition 7
attr replication #7
attr resultdir results
attr runnumber 7
attr seedset 7

vector 119  University.CCTV.udpApp[0]  sentPk:vector(packetBytes)  ETV
attr interpolationmode  none
attr source  sentPk
attr title  "packets sent, vector(packetBytes)"
vector 82  University.profLaptop.udpApp[0]  rcvdPk:vector(packetBytes)  ETV
attr interpolationmode  none
attr source  rcvdPk
attr title  "packets received, vector(packetBytes)"
vector 84  University.profLaptop.udpApp[0]  rcvdPkLifetime:vector  ETV
attr interpolationmode  none
attr source  messageAge(rcvdPk)
attr title  "received packet lifetime, vector"
attr unit  s
vector 83  University.profLaptop.udpApp[0]  sentPk:vector(packetBytes)  ETV
attr interpolationmode  none
attr source  sentPk
attr title  "packets sent, vector(packetBytes)"
vector 64  University.ccTVMonitoringHost.udpApp[0]  rcvdPk:vector(packetBytes)  ETV
attr interpolationmode  none
attr source  rcvdPk
attr title  "packets received, vector(packetBytes)"
vector 65  University.ccTVMonitoringHost.udpApp[0]  endToEndDelay:vector  ETV
attr interpolationmode  none
attr source  messageAge(rcvdPk)
attr title  "end-to-end delay, vector"
attr unit  s
vector 233  University.whostVideoConf.udpApp[0]  rcvdPk:vector(packetBytes)  ETV
attr interpolationmode  none
attr source  rcvdPk
attr title  "packets received, vector(packetBytes)"
vector 235  University.whostVideoConf.udpApp[0]  rcvdPkLifetime:vector  ETV
attr interpolationmode  none
attr source  messageAge(rcvdPk)
attr title  "received packet lifetime, vector"
attr unit  s
vector 234  University.whostVideoConf.udpApp[0]  sentPk:vector(packetBytes)  ETV
attr interpolationmode  none
attr source  sentPk
attr title  "packets sent, vector(packetBytes)"
vector 152  University.whttpStudents[1].tcpApp[0]  numActiveSessions:vector  ETV
attr interpolationmode  sample-hold
attr source  sum(connect)
attr title  "number of active sessions, vector"
vector 150  University.whttpStudents[1].tcpApp[0]  sentPk:vector(packetBytes)  ETV
attr interpolationmode  none
attr source  sentPk
attr title  "packets sent, vector(packetBytes)"
vector 101  University.Server.tcpApp[0]  rcvdPk:vector(packetBytes)  ETV
attr interpolationmode  none
attr source  rcvdPk
attr title  "packets received, vector(packetBytes)"
vector 103  University.Server.tcpApp[0]  endToEndDelay:vector  ETV
attr interpolationmode  none
attr source  messageAge(rcvdPk)
attr title  "end-to-end delay, vector"
attr unit  s
vector 102  University.Server.tcpApp[0]  sentPk:vector(packetBytes)  ETV
attr interpolationmode  none
attr source  sentPk
attr title  "packets sent, vector(packetBytes)"
vector 149  University.whttpStudents[1].tcpApp[0]  rcvdPk:vector(packetBytes)  ETV
attr interpolationmode  none
attr source  rcvdPk
attr title  "packets received, vector(packetBytes)"
vector 151  University.whttpStudents[1].tcpApp[0]  endToEndDelay:vector  ETV
attr interpolationmode  none
attr source  messageAge(rcvdPk)
attr title  "end-to-end delay, vector"
attr unit  s
vector 313  University.CCTV.eth[0].outputHook[0]  "thruput (bit/sec)"  ETV
vector 314  University.CCTV.eth[0].outputHook[0]  packet/sec  ETV
vector 279  University.remoteR.eth[1].inputHook[0]  "thruput (bit/sec)"  ETV
vector 280  University.remoteR.eth[1].inputHook[0]  packet/sec  ETV
vector 281  University.remoteR.ppp[0].outputHook[0]  "thruput (bit/sec)"  ETV
vector 282  University.remoteR.ppp[0].outputHook[0]  packet/sec  ETV
vector 305  University.profLaptop.ppp[0].outputHook[0]  "thruput (bit/sec)"  ETV
vector 306  University.profLaptop.ppp[0].outputHook[0]  packet/sec  ETV
vector 287  University.mainR.ppp[0].inputHook[0]  "thruput (bit/sec)"  ETV
vector 288  University.mainR.ppp[0].inputHook[0]  packet/sec  ETV
vector 291  University.mainR.ppp[1].inputHook[0]  "thruput (bit/sec)"  ETV
vector 292  University.mainR.ppp[1].inputHook[0]  packet/sec  ETV
vector 285  University.mainR.ppp[0].outputHook[0]  "thruput (bit/sec)"  ETV
vector 286  University.mainR.ppp[0].outputHook[0]  packet/sec  ETV
vector 283  University.remoteR.ppp[0].inputHook[0]  "thruput (bit/sec)"  ETV
vector 284  University.remoteR.ppp[0].inputHook[0]  packet/sec  ETV
vector 273  University.remoteR.eth[0].outputHook[0]  "thruput (bit/sec)"  ETV
vector 274  University.remoteR.eth[0].outputHook[0]  packet/sec  ETV
vector 429  University.accessPoint.eth[0].inputHook[0]  "thruput (bit/sec)"  ETV
vector 430  University.accessPoint.eth[0].inputHook[0]  packet/sec  ETV
vector 417  University.accessPoint.wlan[0].outputHook[0]  "thruput (bit/sec)"  ETV
vector 418  University.accessPoint.wlan[0].outputHook[0]  packet/sec  ETV
vector 397  University.whostVideoConf.wlan[0].outputHook[0]  "thruput (bit/sec)"  ETV
vector 398  University.whostVideoConf.wlan[0].outputHook[0]  packet/sec  ETV
vector 419  University.accessPoint.wlan[0].inputHook[0]  "thruput (bit/sec)"  ETV
vector 420  University.accessPoint.wlan[0].inputHook[0]  packet/sec  ETV
vector 427  University.accessPoint.eth[0].outputHook[0]  "thruput (bit/sec)"  ETV
vector 428  University.accessPoint.eth[0].outputHook[0]  packet/sec  ETV
vector 275  University.remoteR.eth[0].inputHook[0]  "thruput (bit/sec)"  ETV
vector 276  University.remoteR.eth[0].inputHook[0]  packet/sec  ETV
vector 409  University.whostFTP.wlan[0].inputHook[0]  "thruput (bit/sec)"  ETV
vector 410  University.whostFTP.wlan[0].inputHook[0]  packet/sec  ETV
vector 293  University.mainR.ppp[2].outputHook[0]  "thruput (bit/sec)"  ETV
vector 294  University.mainR.ppp[2].outputHook[0]  packet/sec  ETV
vector 297  University.mainR.ppp[3].outputHook[0]  "thruput (bit/sec)"  ETV
vector 298  University.mainR.ppp[3].outputHook[0]  packet/sec  ETV
vector 303  University.ccTVMonitoringHost.ppp[0].inputHook[0]  "thruput (bit/sec)"  ETV
vector 304  University.ccTVMonitoringHost.ppp[0].inputHook[0]  packet/sec  ETV
vector 311  University.Server.ppp[0].inputHook[0]  "thruput (bit/sec)"  ETV
vector 312  University.Server.ppp[0].inputHook[0]  packet/sec  ETV
vector 309  University.Server.ppp[0].outputHook[0]  "thruput (bit/sec)"  ETV
vector 310  University.Server.ppp[0].outputHook[0]  packet/sec  ETV
vector 295  University.mainR.ppp[2].inputHook[0]  "thruput (bit/sec)"  ETV
vector 296  University.mainR.ppp[2].inputHook[0]  packet/sec  ETV
vector 399  University.whostVideoConf.wlan[0].inputHook[0]  "thruput (bit/sec)"  ETV
vector 400  University.whostVideoConf.wlan[0].inputHook[0]  packet/sec  ETV
vector 289  University.mainR.ppp[1].outputHook[0]  "thruput (bit/sec)"  ETV
vector 290  University.mainR.ppp[1].outputHook[0]  packet/sec  ETV
vector 307  University.profLaptop.ppp[0].inputHook[0]  "thruput (bit/sec)"  ETV
vector 308  University.profLaptop.ppp[0].inputHook[0]  packet/sec  ETV
vector 407  University.whostFTP.wlan[0].outputHook[0]  "thruput (bit/sec)"  ETV
vector 408  University.whostFTP.wlan[0].outputHook[0]  packet/sec  ETV
vector 212  University.whttpStudents[6].tcpApp[0]  numActiveSessions:vector  ETV
attr interpolationmode  sample-hold
attr source  sum(connect)
attr title  "number of active sessions, vector"
vector 369  University.whttpStudents[5].wlan[0].inputHook[0]  "thruput (bit/sec)"  ETV
vector 370  University.whttpStudents[5].wlan[0].inputHook[0]  packet/sec  ETV
vector 339  University.whttpStudents[2].wlan[0].inputHook[0]  "thruput (bit/sec)"  ETV
vector 340  University.whttpStudents[2].wlan[0].inputHook[0]  packet/sec  ETV
vector 389  University.whttpStudents[7].wlan[0].inputHook[0]  "thruput (bit/sec)"  ETV
vector 390  University.whttpStudents[7].wlan[0].inputHook[0]  packet/sec  ETV
vector 329  University.whttpStudents[1].wlan[0].inputHook[0]  "thruput (bit/sec)"  ETV
vector 330  University.whttpStudents[1].wlan[0].inputHook[0]  packet/sec  ETV
vector 319  University.whttpStudents[0].wlan[0].inputHook[0]  "thruput (bit/sec)"  ETV
vector 320  University.whttpStudents[0].wlan[0].inputHook[0]  packet/sec  ETV
vector 359  University.whttpStudents[4].wlan[0].inputHook[0]  "thruput (bit/sec)"  ETV
vector 360  University.whttpStudents[4].wlan[0].inputHook[0]  packet/sec  ETV
vector 349  University.whttpStudents[3].wlan[0].inputHook[0]  "thruput (bit/sec)"  ETV
vector 350  University.whttpStudents[3].wlan[0].inputHook[0]  packet/sec  ETV
vector 379  University.whttpStudents[6].wlan[0].inputHook[0]  "thruput (bit/sec)"  ETV
vector 380  University.whttpStudents[6].wlan[0].inputHook[0]  packet/sec  ETV
vector 210  University.whttpStudents[6].tcpApp[0]  sentPk:vector(packetBytes)  ETV
attr interpolationmode  none
attr source  sentPk
attr title  "packets sent, vector(packetBytes)"
vector 209  University.whttpStudents[6].tcpApp[0]  rcvdPk:vector(packetBytes)  ETV
attr interpolationmode  none
attr source  rcvdPk
attr title  "packets received, vector(packetBytes)"
vector 211  University.whttpStudents[6].tcpApp[0]  endToEndDelay:vector  ETV
attr interpolationmode  none
attr source  messageAge(rcvdPk)
attr title  "end-to-end delay, vector"
attr unit  s
vector 104  University.Server.tcpApp[1]  rcvdPk:vector(packetBytes)  ETV
attr interpolationmode  none
attr source  rcvdPk
attr title  "packets received, vector(packetBytes)"
vector 106  University.Server.tcpApp[1]  endToEndDelay:vector  ETV
attr interpolationmode  none
attr source  messageAge(rcvdPk)
attr title  "end-to-end delay, vector"
attr unit  s
vector 105  University.Server.tcpApp[1]  sentPk:vector(packetBytes)  ETV
attr interpolationmode  none
attr source  sentPk
attr title  "packets sent, vector(packetBytes)"
vector 249  University.whostFTP.tcpApp[0]  rcvdPk:vector(packetBytes)  ETV
attr interpolationmode  none
attr source  rcvdPk
attr title  "packets received, vector(packetBytes)"
vector 251  University.whostFTP.tcpApp[0]  endToEndDelay:vector  ETV
attr interpolationmode  none
attr source  messageAge(rcvdPk)
attr title  "end-to-end delay, vector"
attr unit  s
vector 252  University.whostFTP.tcpApp[0]  numActiveSessions:vector  ETV
attr interpolationmode  sample-hold
attr source  sum(connect)
attr title  "number of active sessions, vector"
vector 250  University.whostFTP.tcpApp[0]  sentPk:vector(packetBytes)  ETV
attr interpolationmode  none
attr source  sentPk
attr title  "packets sent, vector(packetBytes)"
vector 176  University.whttpStudents[3].tcpApp[0]  numActiveSessions:vector  ETV
attr interpolationmode  sample-hold
attr source  sum(connect)
attr title  "number of active sessions, vector"
vector 174  University.whttpStudents[3].tcpApp[0]  sentPk:vector(packetBytes)  ETV
attr interpolationmode  none
attr source  sentPk
attr title  "packets sent, vector(packetBytes)"
vector 173  University.whttpStudents[3].tcpApp[0]  rcvdPk:vector(packetBytes)  ETV
attr interpolationmode  none
attr source  rcvdPk
attr title  "packets received, vector(packetBytes)"
vector 175  University.whttpStudents[3].tcpApp[0]  endToEndDelay:vector  ETV
attr interpolationmode  none
attr source  messageAge(rcvdPk)
attr title  "end-to-end delay, vector"
attr unit  s
vector 188  University.whttpStudents[4].tcpApp[0]  numActiveSessions:vector  ETV
attr interpolationmode  sample-hold
attr source  sum(connect)
attr title  "number of active sessions, vector"
vector 186  University.whttpStudents[4].tcpApp[0]  sentPk:vector(packetBytes)  ETV
attr interpolationmode  none
attr source  sentPk
attr title  "packets sent, vector(packetBytes)"
vector 164  University.whttpStudents[2].tcpApp[0]  numActiveSessions:vector  ETV
attr interpolationmode  sample-hold
attr source  sum(connect)
attr title  "number of active sessions, vector"
vector 162  University.whttpStudents[2].tcpApp[0]  sentPk:vector(packetBytes)  ETV
attr interpolationmode  none
attr source  sentPk
attr title  "packets sent, vector(packetBytes)"
vector 357  University.whttpStudents[4].wlan[0].outputHook[0]  "thruput (bit/sec)"  ETV
vector 358  University.whttpStudents[4].wlan[0].outputHook[0]  packet/sec  ETV
vector 337  University.whttpStudents[2].wlan[0].outputHook[0]  "thruput (bit/sec)"  ETV
vector 338  University.whttpStudents[2].wlan[0].outputHook[0]  packet/sec  ETV
vector 161  University.whttpStudents[2].tcpApp[0]  rcvdPk:vector(packetBytes)  ETV
attr interpolationmode  none
attr source  rcvdPk
attr title  "packets received, vector(packetBytes)"
vector 163  University.whttpStudents[2].tcpApp[0]  endToEndDelay:vector  ETV
attr interpolationmode  none
attr source  messageAge(rcvdPk)
attr title  "end-to-end delay, vector"
attr unit  s
vector 224  University.whttpStudents[7].tcpApp[0]  numActiveSessions:vector  ETV
attr interpolationmode  sample-hold
attr source  sum(connect)
attr title  "number of active sessions, vector"
vector 185  University.whttpStudents[4].tcpApp[0]  rcvdPk:vector(packetBytes)  ETV
attr interpolationmode  none
attr source  rcvdPk
attr title  "packets received, vector(packetBytes)"
vector 187  University.whttpStudents[4].tcpApp[0]  endToEndDelay:vector  ETV
attr interpolationmode  none
attr source  messageAge(rcvdPk)
attr title  "end-to-end delay, vector"
attr unit  s
vector 222  University.whttpStudents[7].tcpApp[0]  sentPk:vector(packetBytes)  ETV
attr interpolationmode  none
attr source  sentPk
attr title  "packets sent, vector(packetBytes)"
vector 221  University.whttpStudents[7].tcpApp[0]  rcvdPk:vector(packetBytes)  ETV
attr interpolationmode  none
attr source  rcvdPk
attr title  "packets received, vector(packetBytes)"
vector 223  University.whttpStudents[7].tcpApp[0]  endToEndDelay:vector  ETV
attr interpolationmode  none
attr source  messageAge(rcvdPk)
attr title  "end-to-end delay, vector"
attr unit  s
vector 377  University.whttpStudents[6].wlan[0].outputHook[0]  "thruput (bit/sec)"  ETV
vector 378  University.whttpStudents[6].wlan[0].outputHook[0]  packet/sec  ETV
vector 140  University.whttpStudents[0].tcpApp[0]  numActiveSessions:vector  ETV
attr interpolationmode  sample-hold
attr source  sum(connect)
attr title  "number of active sessions, vector"
vector 138  University.whttpStudents[0].tcpApp[0]  sentPk:vector(packetBytes)  ETV
attr interpolationmode  none
attr source  sentPk
attr title  "packets sent, vector(packetBytes)"
vector 137  University.whttpStudents[0].tcpApp[0]  rcvdPk:vector(packetBytes)  ETV
attr interpolationmode  none
attr source  rcvdPk
attr title  "packets received, vector(packetBytes)"
vector 139  University.whttpStudents[0].tcpApp[0]  endToEndDelay:vector  ETV
attr interpolationmode  none
attr source  messageAge(rcvdPk)
attr title  "end-to-end delay, vector"
attr unit  s
vector 347  University.whttpStudents[3].wlan[0].outputHook[0]  "thruput (bit/sec)"  ETV
vector 348  University.whttpStudents[3].wlan[0].outputHook[0]  packet/sec  ETV
vector 200  University.whttpStudents[5].tcpApp[0]  numActiveSessions:vector  ETV
attr interpolationmode  sample-hold
attr source  sum(connect)
attr title  "number of active sessions, vector"
vector 198  University.whttpStudents[5].tcpApp[0]  sentPk:vector(packetBytes)  ETV
attr interpolationmode  none
attr source  sentPk
attr title  "packets sent, vector(packetBytes)"
vector 387  University.whttpStudents[7].wlan[0].outputHook[0]  "thruput (bit/sec)"  ETV
vector 388  University.whttpStudents[7].wlan[0].outputHook[0]  packet/sec  ETV
vector 367  University.whttpStudents[5].wlan[0].outputHook[0]  "thruput (bit/sec)"  ETV
vector 368  University.whttpStudents[5].wlan[0].outputHook[0]  packet/sec  ETV
vector 197  University.whttpStudents[5].tcpApp[0]  rcvdPk:vector(packetBytes)  ETV
attr interpolationmode  none
attr source  rcvdPk
attr title  "packets received, vector(packetBytes)"
vector 199  University.whttpStudents[5].tcpApp[0]  endToEndDelay:vector  ETV
attr interpolationmode  none
attr source  messageAge(rcvdPk)
attr title  "end-to-end delay, vector"
attr unit  s
vector 317  University.whttpStudents[0].wlan[0].outputHook[0]  "thruput (bit/sec)"  ETV
vector 318  University.whttpStudents[0].wlan[0].outputHook[0]  packet/sec  ETV
vector 327  University.whttpStudents[1].wlan[0].outputHook[0]  "thruput (bit/sec)"  ETV
vector 328  University.whttpStudents[1].wlan[0].outputHook[0]  packet/sec  ETV
vector 277  University.remoteR.eth[1].outputHook[0]  "thruput (bit/sec)"  ETV
vector 278  University.remoteR.eth[1].outputHook[0]  packet/sec  ETV
vector 315  University.CCTV.eth[0].inputHook[0]  "thruput (bit/sec)"  ETV
vector 316  University.CCTV.eth[0].inputHook[0]  packet/sec  ETV
64	16557 2186798 346578 264024718 5.018317645156 2429.499322311822 60613 10240 10240 620677120 6355733708800
65	2203355 2730251 346578 264024718 5.018317645156 2429.499322311822 60613 0.017080129996 0.064913752488 1104.7031888406 20.946273992092
82	4933606 2126225 346503 264023326 5.012729355962 2429.492729355962 60609 1400 1400 84852600 118793640000
83	7059831 2128753 346504 264023333 5.012758889105 2429.492758889105 60613 1400 1400 84858200 118801480000
84	9188584 2729829 346503 264023326 5.012729355962 2429.492729355962 60609 0.016345614884 0.220822456144 1093.9273169836 21.785968642579
101	11918413 36579 361014 263998256 5.571821590515 2429.314892445823 1108 1 1 1108 1108
102	11954992 42293 361014 263998256 5.571821590515 2429.314892445823 1108 415 7008927 875762319 1.4198042282428e+15
103	11997285 50796 361014 263998256 5.571821590515 2429.314892445823 1108 0.01319099364 0.052118091092 17.351763250608 0.29764934692233
104	12048081 19355 514419 263437895 7.590126670214 2424.71173701604 497 1048576 1048576 521142272 5.4645727900467e+14
105	12067436 16373 514419 263437895 7.590126670214 2424.71173701604 497 1 1 497 497
106	12083809 22799 514419 263437895 7.590126670214 2424.71173701604 497 1.461373300143 14.251623155193 2327.6183711343 12143.66995824
119	12106608 2189401 345970 264029686 5.00123751516 2429.52123751516 60614 10240 10240 620687360 6355838566400
137	14296009 5273 1835706 263358789 19.642909978342 2424.114142357548 138 415 7008927 116595110 2.3008734823055e+14
138	14301282 4566 1786589 263328604 19.318594537239 2423.869498994374 138 1 1 138 138
139	14305848 6355 1835706 263358789 19.642909978342 2424.114142357548 138 0.031555502918 22.542716749876 503.97180407038 4158.3611173942
140	14312203 9125 1784749 263358789 19.281278008667 2424.114142357548 276 0 1 138 138
149	14321328 5604 421707 261778211 5.973389347972 2414.891097785215 147 5245 3901825 119037725 1.728760862159e+14
150	14326932 4840 360209 261072485 5.558594537097 2409.556403618426 147 1 1 147 147
151	14331772 6732 421707 261778211 5.973389347972 2414.891097785215 147 0.09659187928 23.332871745277 564.50706170227 4436.9314643302
152	14338504 9686 358964 261778211 5.522816594271 2414.891097785215 294 0 1 147 147
161	14348190 5531 1098722 262114142 12.995692310562 2417.363378757693 145 5188 3627992 105022683 1.6662201182582e+14
162	14353721 4826 680206 263997164 10.462806108052 2429.298872506072 146 1 1 146 146
163	14358547 6671 1098722 262114142 12.995692310562 2417.363378757693 145 0.109477375434 13.954995061417 384.37420488234 2311.2594169252
164	14365218 9629 678638 263993246 10.430859374296 2429.266632300233 291 0 1 146 146
173	14374847 5389 629122 260177433 8.500222306712 2396.908583034683 141 2775 3663573 103855061 1.5094821034533e+14
174	14380236 4649 590706 259431815 8.187046979991 2391.34983061967 141 1 1 141 141
175	14384885 6481 629122 260177433 8.500222306712 2396.908583034683 141 0.06504094147 14.223333757205 413.95380293681 2687.0693217901
176	14391366 9323 587441 260177433 8.154680483121 2396.908583034683 282 0 1 141 141
185	14400689 4968 1510435 263973509 16.829921544991 2429.047589130482 130 4238 4213993 99967906 1.4130429688463e+14
186	14405657 4292 678269 262092236 10.42561189134 2417.261649005377 130 1 1 130 130
187	14409949 5976 1510435 263973509 16.829921544991 2429.047589130482 130 0.065556826222 13.197493437742 432.85949498058 2623.4001525712
188	14415925 8584 677048 263973509 10.393683078228 2429.047589130482 260 0 1 130 130
197	14424509 5164 3590127 263984860 34.058143031764 2429.176392652842 135 9481 6693237 108815407 2.108513124091e+14
198	14429673 4465 2949995 263762445 30.518719850503 2427.403618439271 135 1 1 135 135
199	14434138 6201 3590127 263984860 34.058143031764 2429.176392652842 135 0.1039506645 14.483915715913 410.42310199804 2538.794332894
200	14440339 8939 2941094 263984860 30.465652495106 2429.176392652842 270 0 1 135 135
209	14449278 5364 510771 262808044 7.427029380584 2420.93679505957 141 5843 3779440 115474855 1.7726727140006e+14
210	14454642 4634 498922 262241795 7.225261422913 2418.049541994157 141 1 1 141 141
211	14459276 6458 510771 262808044 7.427029380584 2420.93679505957 141 0.099099088284 15.341887646715 452.55301361063 2807.7545270126
212	14465734 9263 497938 262808044 7.193323660225 2420.93679505957 282 0 1 141 141
221	14474997 4987 1593829 263758920 17.227936322213 2427.373205260103 130 16437 3751747 106930113 1.6984366388672e+14
222	14479984 4306 1519685 262951207 16.889834307175 2421.576164146856 130 1 1 130 130
223	14484290 5997 1593829 263758920 17.227936322213 2427.373205260103 130 0.132253716858 17.167294692567 472.88454247568 3523.4080698221
224	14490287 8617 1510041 263758920 16.828079831561 2427.373205260103 260 0 1 130 130
233	14498904 2162072 346651 264028829 5.029105943989 2429.516884576212 59930 1400 1400 83902000 117462800000
234	16660976 2189367 346731 264028774 5.036383741078 2429.516383741078 60613 1400 1400 84858200 118801480000
235	18850343 2759009 346651 264028829 5.029105943989 2429.516884576212 59930 0.016320755488 1.039218107349 1781.9646007844 128.87750410535
249	21609352 16421 514798 263440649 7.608395092057 2424.730262937397 497 1 1 497 497
250	21625773 19412 516216 263447908 7.670994556123 2424.803881232357 497 1048576 1048576 521142272 5.4645727900467e+14
251	21645185 22832 514798 263440649 7.608395092057 2424.730262937397 497 1.482143147885 14.269882577036 2353.5282728616 12473.395435454
252	21668017 33340 514798 263443565 7.608395092057 2424.764292278537 994 -1 0 -497 497
273	21701357 106820 424082 263995859 5.009660107073 2428.288796195309 2417 278585.63069945 11549195.767802 8260958058.8628 4.9614797610589e+16
274	21808177 103822 424082 263995859 5.009660107073 2428.288796195309 2417 25 981.92210118671 1055662.9117927 603421222.2208
275	21911999 108925 424266 263935674 5.010061032765 2427.612497667198 2415 284912.68319697 7417814.4070068 5280719423.8631 1.7875821090647e+16
276	22020924 106857 424266 263935674 5.010061032765 2427.612497667198 2415 25 942.35926640064 1052774.4719766 599475607.01534
277	22127781 879 25660257 260397864 120.04124332516 2280.76124332516 19 1.8660446517827 1.8660446517827 35.454848383872 66.160330206492
278	22128660 936 25660257 260397864 120.04124332516 2280.76124332516 19 0.0083305564811729 0.0083305564811729 0.15828057314229 0.0013185652544342
279	22129596 92405 423139 263963505 5.00135964516 2428.00135964516 2424 2077600 2077824 5036106880 1.046302496254e+16
280	22222001 82709 423139 263963505 5.00135964516 2428.00135964516 2424 175 176 424220 74242020
281	22304710 92406 423141 263963507 5.00135964516 2428.00135964516 2424 2363200 10129888 10336023296 5.0511788594221e+16
282	22397116 82890 423141 263963507 5.00135964516 2428.00135964516 2424 200 1127 1480237 1045837149
283	22480006 106813 424080 263995857 5.028715555771 2428.288796195309 2417 278585.63069945 11549195.767802 8260959980.6257 4.9613799229359e+16
284	22586819 103815 424080 263995857 5.028715555771 2428.288796195309 2417 25 981.92210118671 1055469.3535173 603219011.86722
285	22690634 94281 424019 263967191 5.017758889105 2428.017758889105 2424 285600 14299264 8897642960 5.8932300874856e+16
286	22784915 84940 424019 263967191 5.017758889105 2428.017758889105 2424 25 1222 1109637 680275559
287	22869855 106814 423967 263937602 5.013368978492 2427.708974128579 2421 2340178.9404849 10564551.987872 10323622690.735 5.0244297390349e+16
288	22976669 103450 423967 263937602 5.013368978492 2427.708974128579 2421 199.56921190397 1113 1478512.5487113 1041294202.2563
289	23080119 103821 426646 263973740 5.088410601252 2428.04807764886 2395 251155.40440197 326482.84035413 683965092.85432 1.9534129055993e+14
290	23183940 99860 426646 263973740 5.088410601252 2428.04807764886 2395 21.984891841909 28.578680002987 59870.893982345 1496778.9395165
291	23283800 92405 424017 263967189 5.017758889105 2428.017758889105 2424 285600 285600 692294400 1.9771928064e+14
292	23376205 82709 424017 263967189 5.017758889105 2428.017758889105 2424 25 25 60600 1515000
293	23458914 111520 424826 263972683 5.021461319918 2428.043779100825 2387 1028.2658956085 7252015.4967847 4559528187.9059 1.4979067364943e+16
294	23570434 111291 424826 263972683 5.021461319918 2428.043779100825 2387 0.68273583751973 915 986862.87626788 544993540.61763
295	23681725 111428 424947 264007068 5.031704396502 2428.376725095855 2381 218.4927004478 13939379.951827 8114068035.509 5.3518833352022e+16
296	23793153 111241 424947 264007068 5.031704396502 2428.376725095855 2381 0.68278968889938 1191.7459566235 1037185.263481 619068429.89571
297	23904394 104374 424833 263992436 5.052364311826 2428.252364311826 2417 1966855.7375065 2170836.7945812 5021642108.2219 1.0434083542998e+16
298	24008768 100166 424833 263992436 5.052364311826 2428.252364311826 2417 165.73525111617 182.84273118122 422981.85270308 74029636.903421
303	24108934 104374 424838 263992441 5.052364311826 2428.252364311826 2417 1966855.7375065 2170836.7945812 5021642108.2219 1.0434083542998e+16
304	24213308 100166 424838 263992441 5.052364311826 2428.252364311826 2417 165.73525111617 182.84273118122 422981.85270308 74029636.903421
305	24313474 92405 423962 263966046 5.012758889105 2428.012758889105 2424 285600 285600 692294400 1.9771928064e+14
306	24405879 82709 423962 263966046 5.012758889105 2428.012758889105 2424 25 25 60600 1515000
307	24488588 103821 426662 263973963 5.093410601252 2428.05307764886 2395 251155.40440197 326482.84035413 683965092.85432 1.9534129055993e+14
308	24592409 99860 426662 263973963 5.093410601252 2428.05307764886 2395 21.984891841909 28.578680002987 59870.893982345 1496778.9395165
309	24692269 111366 424864 264006425 5.023963187262 2428.368867086615 2381 218.49279592596 23643732.032978 8661250164.585 6.4148219039932e+16
310	24803635 111128 424864 264006425 5.023963187262 2428.368867086615 2381 0.68278998726864 2041.5417609465 1082813.2124986 702506070.27641
311	24914763 111485 424860 263973211 5.023963187262 2428.046164168169 2387 1028.2657546311 7252015.4967847 4559684724.2245 1.4981841058398e+16
312	25026248 111233 424860 263973211 5.023963187262 2428.046164168169 2387 0.68278998726864 915 986851.08994903 544975362.40661
313	25137481 92405 423115 263963480 5.00123751516 2428.00123751516 2424 2077600 2077824 5036106880 1.046302496254e+16
314	25229886 82709 423115 263963480 5.00123751516 2428.00123751516 2424 175 176 424220 74242020
315	25312595 879 25660264 260397871 120.04124913516 2280.76124913516 19 1.8660446517827 1.8660446517827 35.454848383872 66.160330206492
316	25313474 936 25660264 260397871 120.04124913516 2280.76124913516 19 0.0083305564811729 0.0083305564811729 0.15828057314229 0.0013185652544342
317	25314410 24172 3831677 263326588 19.281278008667 2379.569124410233 516 6.578624373413 247886.17930703 21635048.138381 2606987721843.3
318	25338582 24243 3831677 263326588 19.281278008667 2379.569124410233 516 0.020558201166916 774.64431033447 67590.684334066 25446209.460027
319	25362825 29351 498118 263328600 5.523976658463 2418.00779464682 625 6.212664016594 9295731.7240137 818639336.41404 3.6859007489638e+15
320	25392176 29498 498118 263328600 5.523976658463 2418.00779464682 625 0.027735107216937 774.64431033447 68634.604020702 25786622.827274
327	25421674 28029 4054940 261723006 5.522816594271 2413.561647323112 599 23.766013399219 246897.83694865 22948946.178643 2610589613798.4
328	25449703 28108 4054940 261723006 5.522816594271 2413.561647323112 599 0.074268791872558 771.55574046453 71694.732763968 25479025.80814
329	25477811 32886 498112 262237449 5.524051658321 2414.018381571159 702 8.1720546806209 9258668.8855743 869713337.21915 3.6504916334238e+15
330	25510697 33038 498112 262237449 5.524051658321 2414.018381571159 702 0.036482386967057 771.55574046453 72953.254533104 25579603.685325
337	25543735 20797 829012 263993249 10.430859374296 2416.824647176389 445 10.120349451251 265813.03524798 18352976.356314 2239685387374.5
338	25564532 20900 829012 263993249 10.430859374296 2416.824647176389 445 0.03162609203516 830.66573514993 57337.362654713 21863005.489631
339	25585432 25964 498086 263997160 5.523976642256 2418.007794630613 554 6.212664016594 9646080.5874157 693587058.64246 3.0851143838148e+15
340	25611396 26125 498086 263997160 5.523976642256 2418.007794630613 554 0.027735107216937 803.8400489513 58200.86044162 21598626.478338
347	25637521 21375 2388959 260042111 8.154680483121 2395.202083847515 456 12.862387043102 255775.91478262 18210281.154568 2150101729250.2
348	25658896 21495 2388959 260042111 8.154680483121 2395.202083847515 456 0.040194959509693 799.2997336957 56890.102255822 20986451.538561
349	25680391 26861 498130 262237467 5.523976665984 2408.892487788327 572 5.2840668571992 9591596.8043484 703403491.51175 3.0658262311708e+15
350	25707252 27016 498130 262237467 5.523976665984 2408.892487788327 572 0.023589584183925 799.2997336957 59024.376867282 21461509.890738
357	25734268 21609 828496 263938349 10.393683078228 2427.447282605995 462 8.7565376946034 266912.06787384 18323750.209319 2058729887807.2
358	25755877 21699 828496 263938349 10.393683078228 2427.447282605995 462 0.027364180295636 834.10021210575 57246.387572835 20095040.395686
359	25777576 26432 498124 263938345 5.523976662095 2427.447282605995 564 7.4850653127107 10009202.545269 684242534.00882 2.7958605475807e+15