file 62344750 1471641451                                        
version 2
run _8to13on-2-20160819-23:01:49-10148
attr configname _8to13on
attr datetime 20160819-23:01:49
attr experiment _8to13on
attr inifile omnetpp.ini
attr iterationvars $0=8
attr iterationvars2 "$0=8, $repetition=2"
attr measurement $0=8
attr network University
attr processid 10148
attr repetition 2
attr replication #2
attr resultdir results
attr runnumber 2
attr seedset 2

vector 82  University.profLaptop.udpApp[0]  rcvdPk:vector(packetBytes)  ETV
attr interpolationmode  none
attr source  rcvdPk
attr title  "packets received, vector(packetBytes)"
vector 84  University.profLaptop.udpApp[0]  rcvdPkLifetime:vector  ETV
attr interpolationmode  none
attr source  messageAge(rcvdPk)
attr title  "received packet lifetime, vector"
attr unit  s
vector 119  University.CCTV.udpApp[0]  sentPk:vector(packetBytes)  ETV
attr interpolationmode  none
attr source  sentPk
attr title  "packets sent, vector(packetBytes)"
vector 249  University.whostFTP.tcpApp[0]  rcvdPk:vector(packetBytes)  ETV
attr interpolationmode  none
attr source  rcvdPk
attr title  "packets received, vector(packetBytes)"
vector 251  University.whostFTP.tcpApp[0]  endToEndDelay:vector  ETV
attr interpolationmode  none
attr source  messageAge(rcvdPk)
attr title  "end-to-end delay, vector"
attr unit  s
vector 252  University.whostFTP.tcpApp[0]  numActiveSessions:vector  ETV
attr interpolationmode  sample-hold
attr source  sum(connect)
attr title  "number of active sessions, vector"
vector 233  University.whostVideoConf.udpApp[0]  rcvdPk:vector(packetBytes)  ETV
attr interpolationmode  none
attr source  rcvdPk
attr title  "packets received, vector(packetBytes)"
vector 235  University.whostVideoConf.udpApp[0]  rcvdPkLifetime:vector  ETV
attr interpolationmode  none
attr source  messageAge(rcvdPk)
attr title  "received packet lifetime, vector"
attr unit  s
vector 64  University.ccTVMonitoringHost.udpApp[0]  rcvdPk:vector(packetBytes)  ETV
attr interpolationmode  none
attr source  rcvdPk
attr title  "packets received, vector(packetBytes)"
vector 65  University.ccTVMonitoringHost.udpApp[0]  endToEndDelay:vector  ETV
attr interpolationmode  none
attr source  messageAge(rcvdPk)
attr title  "end-to-end delay, vector"
attr unit  s
vector 234  University.whostVideoConf.udpApp[0]  sentPk:vector(packetBytes)  ETV
attr interpolationmode  none
attr source  sentPk
attr title  "packets sent, vector(packetBytes)"
vector 83  University.profLaptop.udpApp[0]  sentPk:vector(packetBytes)  ETV
attr interpolationmode  none
attr source  sentPk
attr title  "packets sent, vector(packetBytes)"
vector 250  University.whostFTP.tcpApp[0]  sentPk:vector(packetBytes)  ETV
attr interpolationmode  none
attr source  sentPk
attr title  "packets sent, vector(packetBytes)"
vector 152  University.whttpStudents[1].tcpApp[0]  numActiveSessions:vector  ETV
attr interpolationmode  sample-hold
attr source  sum(connect)
attr title  "number of active sessions, vector"
vector 150  University.whttpStudents[1].tcpApp[0]  sentPk:vector(packetBytes)  ETV
attr interpolationmode  none
attr source  sentPk
attr title  "packets sent, vector(packetBytes)"
vector 101  University.Server.tcpApp[0]  rcvdPk:vector(packetBytes)  ETV
attr interpolationmode  none
attr source  rcvdPk
attr title  "packets received, vector(packetBytes)"
vector 103  University.Server.tcpApp[0]  endToEndDelay:vector  ETV
attr interpolationmode  none
attr source  messageAge(rcvdPk)
attr title  "end-to-end delay, vector"
attr unit  s
vector 102  University.Server.tcpApp[0]  sentPk:vector(packetBytes)  ETV
attr interpolationmode  none
attr source  sentPk
attr title  "packets sent, vector(packetBytes)"
vector 291  University.mainR.ppp[1].inputHook[0]  "thruput (bit/sec)"  ETV
vector 292  University.mainR.ppp[1].inputHook[0]  packet/sec  ETV
vector 285  University.mainR.ppp[0].outputHook[0]  "thruput (bit/sec)"  ETV
vector 286  University.mainR.ppp[0].outputHook[0]  packet/sec  ETV
vector 419  University.accessPoint.wlan[0].inputHook[0]  "thruput (bit/sec)"  ETV
vector 420  University.accessPoint.wlan[0].inputHook[0]  packet/sec  ETV
vector 427  University.accessPoint.eth[0].outputHook[0]  "thruput (bit/sec)"  ETV
vector 428  University.accessPoint.eth[0].outputHook[0]  packet/sec  ETV
vector 275  University.remoteR.eth[0].inputHook[0]  "thruput (bit/sec)"  ETV
vector 276  University.remoteR.eth[0].inputHook[0]  packet/sec  ETV
vector 281  University.remoteR.ppp[0].outputHook[0]  "thruput (bit/sec)"  ETV
vector 282  University.remoteR.ppp[0].outputHook[0]  packet/sec  ETV
vector 313  University.CCTV.eth[0].outputHook[0]  "thruput (bit/sec)"  ETV
vector 314  University.CCTV.eth[0].outputHook[0]  packet/sec  ETV
vector 279  University.remoteR.eth[1].inputHook[0]  "thruput (bit/sec)"  ETV
vector 280  University.remoteR.eth[1].inputHook[0]  packet/sec  ETV
vector 273  University.remoteR.eth[0].outputHook[0]  "thruput (bit/sec)"  ETV
vector 274  University.remoteR.eth[0].outputHook[0]  packet/sec  ETV
vector 429  University.accessPoint.eth[0].inputHook[0]  "thruput (bit/sec)"  ETV
vector 430  University.accessPoint.eth[0].inputHook[0]  packet/sec  ETV
vector 417  University.accessPoint.wlan[0].outputHook[0]  "thruput (bit/sec)"  ETV
vector 418  University.accessPoint.wlan[0].outputHook[0]  packet/sec  ETV
vector 287  University.mainR.ppp[0].inputHook[0]  "thruput (bit/sec)"  ETV
vector 288  University.mainR.ppp[0].inputHook[0]  packet/sec  ETV
vector 293  University.mainR.ppp[2].outputHook[0]  "thruput (bit/sec)"  ETV
vector 294  University.mainR.ppp[2].outputHook[0]  packet/sec  ETV
vector 283  University.remoteR.ppp[0].inputHook[0]  "thruput (bit/sec)"  ETV
vector 284  University.remoteR.ppp[0].inputHook[0]  packet/sec  ETV
vector 297  University.mainR.ppp[3].outputHook[0]  "thruput (bit/sec)"  ETV
vector 298  University.mainR.ppp[3].outputHook[0]  packet/sec  ETV
vector 303  University.ccTVMonitoringHost.ppp[0].inputHook[0]  "thruput (bit/sec)"  ETV
vector 304  University.ccTVMonitoringHost.ppp[0].inputHook[0]  packet/sec  ETV
vector 397  University.whostVideoConf.wlan[0].outputHook[0]  "thruput (bit/sec)"  ETV
vector 398  University.whostVideoConf.wlan[0].outputHook[0]  packet/sec  ETV
vector 305  University.profLaptop.ppp[0].outputHook[0]  "thruput (bit/sec)"  ETV
vector 306  University.profLaptop.ppp[0].outputHook[0]  packet/sec  ETV
vector 311  University.Server.ppp[0].inputHook[0]  "thruput (bit/sec)"  ETV
vector 312  University.Server.ppp[0].inputHook[0]  packet/sec  ETV
vector 309  University.Server.ppp[0].outputHook[0]  "thruput (bit/sec)"  ETV
vector 310  University.Server.ppp[0].outputHook[0]  packet/sec  ETV
vector 295  University.mainR.ppp[2].inputHook[0]  "thruput (bit/sec)"  ETV
vector 296  University.mainR.ppp[2].inputHook[0]  packet/sec  ETV
vector 399  University.whostVideoConf.wlan[0].inputHook[0]  "thruput (bit/sec)"  ETV
vector 400  University.whostVideoConf.wlan[0].inputHook[0]  packet/sec  ETV
vector 349  University.whttpStudents[3].wlan[0].inputHook[0]  "thruput (bit/sec)"  ETV
vector 350  University.whttpStudents[3].wlan[0].inputHook[0]  packet/sec  ETV
vector 347  University.whttpStudents[3].wlan[0].outputHook[0]  "thruput (bit/sec)"  ETV
vector 348  University.whttpStudents[3].wlan[0].outputHook[0]  packet/sec  ETV
vector 289  University.mainR.ppp[1].outputHook[0]  "thruput (bit/sec)"  ETV
vector 290  University.mainR.ppp[1].outputHook[0]  packet/sec  ETV
vector 307  University.profLaptop.ppp[0].inputHook[0]  "thruput (bit/sec)"  ETV
vector 308  University.profLaptop.ppp[0].inputHook[0]  packet/sec  ETV
vector 407  University.whostFTP.wlan[0].outputHook[0]  "thruput (bit/sec)"  ETV
vector 408  University.whostFTP.wlan[0].outputHook[0]  packet/sec  ETV
vector 339  University.whttpStudents[2].wlan[0].inputHook[0]  "thruput (bit/sec)"  ETV
vector 340  University.whttpStudents[2].wlan[0].inputHook[0]  packet/sec  ETV
vector 337  University.whttpStudents[2].wlan[0].outputHook[0]  "thruput (bit/sec)"  ETV
vector 338  University.whttpStudents[2].wlan[0].outputHook[0]  packet/sec  ETV
vector 409  University.whostFTP.wlan[0].inputHook[0]  "thruput (bit/sec)"  ETV
vector 410  University.whostFTP.wlan[0].inputHook[0]  packet/sec  ETV
vector 359  University.whttpStudents[4].wlan[0].inputHook[0]  "thruput (bit/sec)"  ETV
vector 360  University.whttpStudents[4].wlan[0].inputHook[0]  packet/sec  ETV
vector 357  University.whttpStudents[4].wlan[0].outputHook[0]  "thruput (bit/sec)"  ETV
vector 358  University.whttpStudents[4].wlan[0].outputHook[0]  packet/sec  ETV
vector 161  University.whttpStudents[2].tcpApp[0]  rcvdPk:vector(packetBytes)  ETV
attr interpolationmode  none
attr source  rcvdPk
attr title  "packets received, vector(packetBytes)"
vector 163  University.whttpStudents[2].tcpApp[0]  endToEndDelay:vector  ETV
attr interpolationmode  none
attr source  messageAge(rcvdPk)
attr title  "end-to-end delay, vector"
attr unit  s
vector 164  University.whttpStudents[2].tcpApp[0]  numActiveSessions:vector  ETV
attr interpolationmode  sample-hold
attr source  sum(connect)
attr title  "number of active sessions, vector"
vector 329  University.whttpStudents[1].wlan[0].inputHook[0]  "thruput (bit/sec)"  ETV
vector 330  University.whttpStudents[1].wlan[0].inputHook[0]  packet/sec  ETV
vector 327  University.whttpStudents[1].wlan[0].outputHook[0]  "thruput (bit/sec)"  ETV
vector 328  University.whttpStudents[1].wlan[0].outputHook[0]  packet/sec  ETV
vector 149  University.whttpStudents[1].tcpApp[0]  rcvdPk:vector(packetBytes)  ETV
attr interpolationmode  none
attr source  rcvdPk
attr title  "packets received, vector(packetBytes)"
vector 151  University.whttpStudents[1].tcpApp[0]  endToEndDelay:vector  ETV
attr interpolationmode  none
attr source  messageAge(rcvdPk)
attr title  "end-to-end delay, vector"
attr unit  s
vector 140  University.whttpStudents[0].tcpApp[0]  numActiveSessions:vector  ETV
attr interpolationmode  sample-hold
attr source  sum(connect)
attr title  "number of active sessions, vector"
vector 389  University.whttpStudents[7].wlan[0].inputHook[0]  "thruput (bit/sec)"  ETV
vector 390  University.whttpStudents[7].wlan[0].inputHook[0]  packet/sec  ETV
vector 369  University.whttpStudents[5].wlan[0].inputHook[0]  "thruput (bit/sec)"  ETV
vector 370  University.whttpStudents[5].wlan[0].inputHook[0]  packet/sec  ETV
vector 379  University.whttpStudents[6].wlan[0].inputHook[0]  "thruput (bit/sec)"  ETV
vector 380  University.whttpStudents[6].wlan[0].inputHook[0]  packet/sec  ETV
vector 319  University.whttpStudents[0].wlan[0].inputHook[0]  "thruput (bit/sec)"  ETV
vector 320  University.whttpStudents[0].wlan[0].inputHook[0]  packet/sec  ETV
vector 138  University.whttpStudents[0].tcpApp[0]  sentPk:vector(packetBytes)  ETV
attr interpolationmode  none
attr source  sentPk
attr title  "packets sent, vector(packetBytes)"
vector 137  University.whttpStudents[0].tcpApp[0]  rcvdPk:vector(packetBytes)  ETV
attr interpolationmode  none
attr source  rcvdPk
attr title  "packets received, vector(packetBytes)"
vector 139  University.whttpStudents[0].tcpApp[0]  endToEndDelay:vector  ETV
attr interpolationmode  none
attr source  messageAge(rcvdPk)
attr title  "end-to-end delay, vector"
attr unit  s
vector 212  University.whttpStudents[6].tcpApp[0]  numActiveSessions:vector  ETV
attr interpolationmode  sample-hold
attr source  sum(connect)
attr title  "number of active sessions, vector"
vector 210  University.whttpStudents[6].tcpApp[0]  sentPk:vector(packetBytes)  ETV
attr interpolationmode  none
attr source  sentPk
attr title  "packets sent, vector(packetBytes)"
vector 377  University.whttpStudents[6].wlan[0].outputHook[0]  "thruput (bit/sec)"  ETV
vector 378  University.whttpStudents[6].wlan[0].outputHook[0]  packet/sec  ETV
vector 104  University.Server.tcpApp[1]  rcvdPk:vector(packetBytes)  ETV
attr interpolationmode  none
attr source  rcvdPk
attr title  "packets received, vector(packetBytes)"
vector 106  University.Server.tcpApp[1]  endToEndDelay:vector  ETV
attr interpolationmode  none
attr source  messageAge(rcvdPk)
attr title  "end-to-end delay, vector"
attr unit  s
vector 105  University.Server.tcpApp[1]  sentPk:vector(packetBytes)  ETV
attr interpolationmode  none
attr source  sentPk
attr title  "packets sent, vector(packetBytes)"
vector 317  University.whttpStudents[0].wlan[0].outputHook[0]  "thruput (bit/sec)"  ETV
vector 318  University.whttpStudents[0].wlan[0].outputHook[0]  packet/sec  ETV
vector 209  University.whttpStudents[6].tcpApp[0]  rcvdPk:vector(packetBytes)  ETV
attr interpolationmode  none
attr source  rcvdPk
attr title  "packets received, vector(packetBytes)"
vector 211  University.whttpStudents[6].tcpApp[0]  endToEndDelay:vector  ETV
attr interpolationmode  none
attr source  messageAge(rcvdPk)
attr title  "end-to-end delay, vector"
attr unit  s
vector 185  University.whttpStudents[4].tcpApp[0]  rcvdPk:vector(packetBytes)  ETV
attr interpolationmode  none
attr source  rcvdPk
attr title  "packets received, vector(packetBytes)"
vector 187  University.whttpStudents[4].tcpApp[0]  endToEndDelay:vector  ETV
attr interpolationmode  none
attr source  messageAge(rcvdPk)
attr title  "end-to-end delay, vector"
attr unit  s
vector 188  University.whttpStudents[4].tcpApp[0]  numActiveSessions:vector  ETV
attr interpolationmode  sample-hold
attr source  sum(connect)
attr title  "number of active sessions, vector"
vector 224  University.whttpStudents[7].tcpApp[0]  numActiveSessions:vector  ETV
attr interpolationmode  sample-hold
attr source  sum(connect)
attr title  "number of active sessions, vector"
vector 222  University.whttpStudents[7].tcpApp[0]  sentPk:vector(packetBytes)  ETV
attr interpolationmode  none
attr source  sentPk
attr title  "packets sent, vector(packetBytes)"
vector 221  University.whttpStudents[7].tcpApp[0]  rcvdPk:vector(packetBytes)  ETV
attr interpolationmode  none
attr source  rcvdPk
attr title  "packets received, vector(packetBytes)"
vector 223  University.whttpStudents[7].tcpApp[0]  endToEndDelay:vector  ETV
attr interpolationmode  none
attr source  messageAge(rcvdPk)
attr title  "end-to-end delay, vector"
attr unit  s
vector 173  University.whttpStudents[3].tcpApp[0]  rcvdPk:vector(packetBytes)  ETV
attr interpolationmode  none
attr source  rcvdPk
attr title  "packets received, vector(packetBytes)"
vector 175  University.whttpStudents[3].tcpApp[0]  endToEndDelay:vector  ETV
attr interpolationmode  none
attr source  messageAge(rcvdPk)
attr title  "end-to-end delay, vector"
attr unit  s
vector 176  University.whttpStudents[3].tcpApp[0]  numActiveSessions:vector  ETV
attr interpolationmode  sample-hold
attr source  sum(connect)
attr title  "number of active sessions, vector"
vector 174  University.whttpStudents[3].tcpApp[0]  sentPk:vector(packetBytes)  ETV
attr interpolationmode  none
attr source  sentPk
attr title  "packets sent, vector(packetBytes)"
vector 387  University.whttpStudents[7].wlan[0].outputHook[0]  "thruput (bit/sec)"  ETV
vector 388  University.whttpStudents[7].wlan[0].outputHook[0]  packet/sec  ETV
vector 162  University.whttpStudents[2].tcpApp[0]  sentPk:vector(packetBytes)  ETV
attr interpolationmode  none
attr source  sentPk
attr title  "packets sent, vector(packetBytes)"
vector 186  University.whttpStudents[4].tcpApp[0]  sentPk:vector(packetBytes)  ETV
attr interpolationmode  none
attr source  sentPk
attr title  "packets sent, vector(packetBytes)"
vector 200  University.whttpStudents[5].tcpApp[0]  numActiveSessions:vector  ETV
attr interpolationmode  sample-hold
attr source  sum(connect)
attr title  "number of active sessions, vector"
vector 198  University.whttpStudents[5].tcpApp[0]  sentPk:vector(packetBytes)  ETV
attr interpolationmode  none
attr source  sentPk
attr title  "packets sent, vector(packetBytes)"
vector 367  University.whttpStudents[5].wlan[0].outputHook[0]  "thruput (bit/sec)"  ETV
vector 368  University.whttpStudents[5].wlan[0].outputHook[0]  packet/sec  ETV
vector 197  University.whttpStudents[5].tcpApp[0]  rcvdPk:vector(packetBytes)  ETV
attr interpolationmode  none
attr source  rcvdPk
attr title  "packets received, vector(packetBytes)"
vector 199  University.whttpStudents[5].tcpApp[0]  endToEndDelay:vector  ETV
attr interpolationmode  none
attr source  messageAge(rcvdPk)
attr title  "end-to-end delay, vector"
attr unit  s
vector 277  University.remoteR.eth[1].outputHook[0]  "thruput (bit/sec)"  ETV
vector 278  University.remoteR.eth[1].outputHook[0]  packet/sec  ETV
vector 315  University.CCTV.eth[0].inputHook[0]  "thruput (bit/sec)"  ETV
vector 316  University.CCTV.eth[0].inputHook[0]  packet/sec  ETV
64	16557 2189052 670753 240784015 5.028189275778 2432.068157942445 60677 10240 10240 621332480 6362444595200
65	2205609 2734271 670753 240784015 5.028189275778 2432.068157942445 60677 0.017080129996 0.057260511318 1081.4877916344 19.888364867434
82	4939880 2124388 667313 240784589 5.009559131465 2432.087759028219 60596 1400 1400 84834400 118768160000
83	7064268 2129667 672724 240784146 5.037261634543 2432.077261634543 60677 1400 1400 84947800 118926920000
84	9193935 2727980 667313 240784589 5.009559131465 2432.087759028219 60596 0.016345622319 0.210963556426 1081.3544137939 20.66243381349
101	11921915 33093 854461 240676501 5.889485528796 2430.090429417137 1005 1 1 1005 1005
102	11955008 38318 854461 240676501 5.889485528796 2430.090429417137 1005 596 5668045 856666954 1.3909238233747e+15
103	11993326 46109 854461 240676501 5.889485528796 2430.090429417137 1005 0.027990412417 0.056588358631 29.570710128947 0.88219380971433
104	12039435 14686 1428101 240211395 11.542715445354 2427.303625050973 376 1048576 1048576 394264576 4.1341637204378e+14
105	12054121 12430 1428101 240211395 11.542715445354 2427.303625050973 376 1 1 376 376
106	12066551 17291 1428101 240211395 11.542715445354 2427.303625050973 376 1.613156598623 24.364386190698 2365.8599450698 16667.154757965
119	12083842 2251057 667677 240784590 5.011077812449 2432.091077812449 60678 10240 10240 621342720 6362549452800
137	14334899 5051 1217275 240721921 9.11892154615 2430.38940733307 132 19455 3812430 102046301 1.4061589806748e+14
138	14339950 4360 1151713 240671078 8.621636872045 2430.024914243436 132 1 1 132 132
139	14344310 6077 1217275 240721921 9.11892154615 2430.38940733307 132 0.188304818913 22.253712618037 567.48277975389 4679.0440300293
140	14350387 8718 1149547 240721921 8.57250477185 2430.38940733307 264 0 1 132 132
149	14359105 4964 1132829 240713128 8.305529525063 2430.349832181418 131 2916 4075034 106801625 1.6812660484772e+14
150	14364069 4297 846969 236750625 5.856890754205 2401.457138868488 131 1 1 131 131
151	14368366 5981 1132829 240713128 8.305529525063 2430.349832181418 131 0.09689815714 28.89269331293 544.33332956956 4993.8206018742
152	14374347 8579 834254 240713128 5.796775035326 2430.349832181418 262 0 1 131 131
161	14382926 4942 1007712 240652144 6.697093881011 2429.733712317267 130 14414 4714878 120944939 2.273160035941e+14
162	14387868 4234 2642417 238899964 20.807468545005 2416.671229955719 129 1 1 129 129
163	14392102 5956 1007712 240652144 6.697093881011 2429.733712317267 130 0.185856239856 15.431471493511 619.60826035623 5405.4707745633
164	14398058 8625 1007712 240652144 6.697093881011 2429.733712317267 259 -1 0 -130 130
173	14406683 4730 2056321 240522450 15.32819885039 2428.89095339804 124 19003 5668045 112424361 2.110323809009e+14
174	14411413 4053 2386016 240265680 16.98157030211 2427.583628468649 123 1 1 123 123
175	14415466 5700 2056321 240522450 15.32819885039 2428.89095339804 124 0.19345674891 17.868410859914 558.04850347406 5125.548860101
176	14421166 8255 2056321 240522450 15.32819885039 2428.89095339804 247 -1 0 -124 124
185	14429421 3950 1604594 238543715 12.743724872337 2413.133839722315 103 2585 2975951 100591892 1.4740035320507e+14
186	14433371 3375 3298987 237497870 25.464914226786 2406.390878778006 102 1 1 102 102
187	14436746 4735 1604594 238543715 12.743724872337 2413.133839722315 103 0.096011070261 25.791318866358 490.12948807695 4160.9959290588
188	14441481 6864 1604594 238543715 12.743724872337 2413.133839722315 205 -1 0 -103 103
197	14448345 5392 3905942 240746789 28.458221746768 2430.500144330452 141 870 3802463 104595909 1.3664111918871e+14
198	14453737 4666 3338886 240673818 25.641711620437 2430.062393971486 141 1 1 141 141
199	14458403 6492 3905942 240746789 28.458221746768 2430.500144330452 141 0.051237850747 16.849415906852 564.36047206149 4710.7085712454
200	14464895 9322 3323694 240746789 25.574926411812 2430.500144330452 282 0 1 141 141
209	14474217 4672 1469158 240753941 11.989420390904 2430.664010559081 123 596 4819555 110135538 1.8898618172819e+14
210	14478889 4036 1232404 239297932 9.748652302722 2419.1527539063 123 1 1 123 123
211	14482925 5629 1469158 240753941 11.989420390904 2430.664010559081 123 0.044861372332 18.772222734248 587.12587496069 5356.2064877924
212	14488554 8078 1231273 240753941 9.705097568448 2430.664010559081 246 0 1 123 123
221	14496632 4728 1667508 238849547 13.569537376241 2415.782987986411 124 2203 5290578 104924331 1.8728489231959e+14
222	14501360 4090 1622134 238411896 13.302356169535 2412.321882189489 124 1 1 124 124
223	14505450 5698 1667508 238849547 13.569537376241 2415.782987986411 124 0.090578589559 17.774749994225 535.93973592995 4826.0167370759
224	14511148 8177 1619004 238849547 13.257243456347 2415.782987986411 248 0 1 124 124
233	14519325 2145620 669192 240784726 5.016770442015 2432.093608696862 59502 1400 1400 83302800 116623920000
234	16664945 2068989 671341 240784025 5.0314134059 2432.0714134059 60677 1400 1400 84947800 118926920000
235	18733934 2738241 669192 240783872 5.016770442015 2432.053608696862 59501 0.016319638235 0.175642137257 1640.2419232816 95.353743092517
249	21472175 12439 668375 240214115 5.013347268727 2427.322182449887 377 1 1 377 377
250	21484614 14709 722404 240231113 5.249949257275 2427.431619225659 377 1048576 1048576 395313152 4.1451588367155e+14
251	21499323 17309 668375 240214115 5.013347268727 2427.322182449887 377 1.630139134753 24.381287726828 2386.4559683457 16904.731923257
252	21516632 25273 668375 240220326 5.013347268727 2427.36803078226 754 -1 0 -377 377
273	21541905 106137 881406 240767044 5.00682572531 2430.222670391993 2417 287200 11412778.134217 8127065147.2 4.6597154734376e+16
274	21648042 102961 881406 240767044 5.00682572531 2430.222670391993 2417 30 1011.8060275417 958347.48008337 525281096.17323
275	21751003 108928 881076 240769411 5.010760827255 2430.354539066457 2416 199778.49344898 7137649.7744949 4230213134.8961 1.2905031567053e+16
276	21859931 107125 881076 240769411 5.010760827255 2430.354539066457 2416 29.907696324134 939.31364512198 955876.26563672 520579528.21468
277	21967056 897 24433207 236671828 120.011083622449 2280.731083622449 19 1.8660446517827 1.8660446517827 35.454848383872 66.160330206492
278	21967953 954 24433207 236671828 120.011083622449 2280.731083622449 19 0.0083305564811729 0.0083305564811729 0.15828057314229 0.0013185652544342
279	21968907 94909 881108 240782857 5.011199942449 2431.011322982448 2427 2077600 2089367.2027084 5042351423.0587 1.0476023161034e+16
280	22063816 85209 881108 240782857 5.011199942449 2431.011322982448 2427 175 176 424745.97834717 74334238.378592
281	22149025 94922 881078 240782859 5.010760827255 2431.011322982448 2427 2301664 9959600 9290149933.296 4.0946587700839e+16
282	22243947 85367 881078 240782859 5.010760827255 2431.011322982448 2427 200 1120 1384194.5410196 933404638.29109
283	22329314 106160 882934 240767042 5.02263905866 2430.222670391993 2417 287200 11412778.134217 8126992739.3096 4.6597852517165e+16
284	22435474 102977 882934 240767042 5.02263905866 2430.222670391993 2417 30 1011.8060275417 958149.70809454 525142811.90851
285	22538451 94265 879364 240782791 5.002261634543 2431.002261634543 2427 285920 14953104 8799691144 5.6663244987624e+16
286	22632716 84887 879364 240782791 5.002261634543 2431.002261634543 2427 26 1276 1015348 604551746
287	22717603 104031 882734 240767620 5.020792160588 2430.265249942446 2424 2364480 9454282.8551591 9279158886.6472 4.0902227337634e+16
288	22821634 99064 882734 240767620 5.020792160588 2430.265249942446 2424 201 1112.2531339484 1382712.3955062 932554717.69761
289	22920698 104246 903228 240774409 5.123850612366 2430.602759028219 2395 165044.82164452 340885.33267757 683181758.99079 1.9498296297162e+14
290	23024944 100556 903228 240774409 5.123850612366 2430.602759028219 2395 14.447200774205 29.839402370236 59802.324841631 1494033.2978444
291	23125500 92466 879362 240782789 5.002261634543 2431.002261634543 2427 285600 285600 693151200 1.9796398272e+14
292	23217966 82758 879362 240782789 5.002261634543 2431.002261634543 2427 25 25 60675 1516875
293	23300724 112385 882736 240776186 5.020792160588 2430.673499690051 2403 1102.0852640461 8647587.2334039 3528193162.9937 1.0354610420667e+16
294	23413109 112275 882736 240776186 5.020792160588 2430.673499690051 2403 0.95697106556612 913.40203468831 892295.33126147 471591942.7256
295	23525384 112172 891952 240783111 5.091754951994 2431.022233072103 2396 279.67945731651 13905931.120708 8001543193.8104 5.0709260846021e+16
296	23637556 112031 891952 240783111 5.091754951994 2431.022233072103 2396 0.87399830411409 1171.2678167567 943436.83880819 545016303.71876
297	23749587 101590 883008 240780014 5.024213942447 2430.868157942445 2422 1978538.0061593 2155177.4990461 5032055300.2845 1.0455420222667e+16
298	23851177 95571 883008 240780014 5.024213942447 2430.868157942445 2422 166.7086940162 181.53449284418 423858.97021521 74181065.840634
303	23946748 101590 883013 240780019 5.024213942447 2430.868157942445 2422 1978538.0061593 2155177.4990461 5032055300.2845 1.0455420222667e+16
304	24048338 95571 883013 240780019 5.024213942447 2430.868157942445 2422 166.7086940162 181.53449284418 423858.97021521 74181065.840634
305	24143909 92466 885212 240783282 5.037261634543 2431.037261634543 2427 285600 285600 693151200 1.9796398272e+14
306	24236375 82758 885212 240783282 5.037261634543 2431.037261634543 2427 25 25 60675 1516875
307	24319133 104246 904303 240774415 5.128850612366 2430.607759028219 2395 165044.82164452 340885.33267757 683181758.99079 1.9498296297162e+14
308	24423379 100556 904303 240774415 5.128850612366 2430.607759028219 2395 14.447200774205 29.839402370236 59802.324841631 1494033.2978444
309	24523935 112137 891373 240783035 5.085467795465 2431.016089275575 2397 279.67945731651 19413594.282772 8545202834.7131 6.0622016421309e+16
310	24636072 112015 891373 240783035 5.085467795465 2431.016089275575 2397 0.87399830411409 1718.365529358 988765.70998423 622530291.74974
311	24748087 112380 885231 240776412 5.037976680276 2430.690684209739 2403 1101.9744436772 8648568.4991263 3528277626.1571 1.0365783190293e+16
312	24860467 112253 885231 240776412 5.037976680276 2430.690684209739 2403 0.95697106556612 913.40203468831 892293.64296041 471776000.20495
313	24972720 94893 881084 240782824 5.011077812449 2431.011077812449 2427 2077600 2077824 5042339680 1.047597422782e+16
314	25067613 85185 881084 240782824 5.011077812449 2431.011077812449 2427 175 176 424745 74333895
315	25152798 897 24433214 236671835 120.011089432449 2280.731089432449 19 1.8660446517827 1.8660446517827 35.454848383872 66.160330206492
316	25153695 954 24433214 236671835 120.011089432449 2280.731089432449 19 0.0083305564811729 0.0083305564811729 0.15828057314229 0.0013185652544342
317	25154649 26472 1434362 240667855 8.57250477185 2418.379834718845 565 6.3957844768098 230333.27950818 19355490.127559 2115645850645.1
318	25181121 26538 1434362 240667855 8.57250477185 2418.379834718845 565 0.019986826490031 719.79149846307 60468.834365846 20649889.842833
319	25207659 31323 1149800 240671074 5.803625482664 2427.264716912446 667 8.7275811362698 8815710.8253097 732703987.09104 3.011650710287e+15
320	25238982 31458 1149800 240671074 5.803625482664 2427.264716912446 667 0.038962415786919 734.64256877581 61486.592372261 21100351.348269
327	25270440 26845 1073634 240594901 5.796775035326 2428.435654029159 575 4.8800269470579 276305.93786392 21040830.738701 2373050822722.2
328	25297285 26941 1073634 240594901 5.796775035326 2428.435654029159 575 0.015250084209556 863.45605582476 65736.150516775 23162952.460798
329	25324226 31474 1073630 240594897 5.803691458021 2428.435654029159 672 3.6001943925215 10360877.866644 789011190.73931 3.3320615215385e+15
330	25355700 31630 1073630 240594897 5.803691458021 2428.435654029159 672 0.016072296395185 863.45605582476 66167.18888871 23332124.626967
337	25387330 28627 1002896 240534121 5.500937159645 2423.845042748766 614 14.640030823982 279969.28247837 23073417.253044 2794414789152.1
338	25415957 28689 1002896 240534121 5.500937159645 2423.845042748766 614 0.045750096324944 874.9040077449 72087.291617879 27278309.260115
339	25444646 33039 1002892 240534117 5.500937159645 2427.264716908076 707 5.5092294208139 10509599.207545 876725112.90291 4.0242967776136e+15
340	25477685 33162 1002892 240534117 5.500937159645 2427.264716908076 707 0.024594774200062 875.79993396206 73511.144418392 28152146.958532
347	25510847 25765 899065 240458715 5.096128398026 2427.51146660665 550 34.103331206093 279083.64206489 20697040.500693 2455545253237.9
348	25536612 25820 899065 240458715 5.096128398026 2427.51146660665 550 0.10657291001904 872.13638145277 64663.907122086 23970111.900932
349	25562432 30401 899061 240419065 5.096128398026 2427.264716897863 648 5.7816074769091 10453728.369338 773431384.00932 3.4596271287811e+15
350	25592833 30519 899061 240419065 5.096128398026 2427.264716897863 648 0.025810747664773 872.13638145277 64830.200961935 24195318.61031
357	25623352 23612 1007286 238517898 5.673794394468 2410.328141575514 505 23.201278169699 214166.78274226 18807951.531509 2025344303970.7
358	25646964 23687 1007286 238517898 5.673794394468 2410.328141575514 505 0.07250399428031 669.27119606958 58761.354546329 19769015.139791