file 62708260 1471641629                                        
version 2
run _8to13on-4-20160819-23:10:56-10370
attr configname _8to13on
attr datetime 20160819-23:10:56
attr experiment _8to13on
attr inifile omnetpp.ini
attr iterationvars $0=8
attr iterationvars2 "$0=8, $repetition=4"
attr measurement $0=8
attr network University
attr processid 10370
attr repetition 4
attr replication #4
attr resultdir results
attr runnumber 4
attr seedset 4

vector 82  University.profLaptop.udpApp[0]  rcvdPk:vector(packetBytes)  ETV
attr interpolationmode  none
attr source  rcvdPk
attr title  "packets received, vector(packetBytes)"
vector 84  University.profLaptop.udpApp[0]  rcvdPkLifetime:vector  ETV
attr interpolationmode  none
attr source  messageAge(rcvdPk)
attr title  "received packet lifetime, vector"
attr unit  s
vector 83  University.profLaptop.udpApp[0]  sentPk:vector(packetBytes)  ETV
attr interpolationmode  none
attr source  sentPk
attr title  "packets sent, vector(packetBytes)"
vector 64  University.ccTVMonitoringHost.udpApp[0]  rcvdPk:vector(packetBytes)  ETV
attr interpolationmode  none
attr source  rcvdPk
attr title  "packets received, vector(packetBytes)"
vector 65  University.ccTVMonitoringHost.udpApp[0]  endToEndDelay:vector  ETV
attr interpolationmode  none
attr source  messageAge(rcvdPk)
attr title  "end-to-end delay, vector"
attr unit  s
vector 233  University.whostVideoConf.udpApp[0]  rcvdPk:vector(packetBytes)  ETV
attr interpolationmode  none
attr source  rcvdPk
attr title  "packets received, vector(packetBytes)"
vector 235  University.whostVideoConf.udpApp[0]  rcvdPkLifetime:vector  ETV
attr interpolationmode  none
attr source  messageAge(rcvdPk)
attr title  "received packet lifetime, vector"
attr unit  s
vector 234  University.whostVideoConf.udpApp[0]  sentPk:vector(packetBytes)  ETV
attr interpolationmode  none
attr source  sentPk
attr title  "packets sent, vector(packetBytes)"
vector 119  University.CCTV.udpApp[0]  sentPk:vector(packetBytes)  ETV
attr interpolationmode  none
attr source  sentPk
attr title  "packets sent, vector(packetBytes)"
vector 429  University.accessPoint.eth[0].inputHook[0]  "thruput (bit/sec)"  ETV
vector 430  University.accessPoint.eth[0].inputHook[0]  packet/sec  ETV
vector 417  University.accessPoint.wlan[0].outputHook[0]  "thruput (bit/sec)"  ETV
vector 418  University.accessPoint.wlan[0].outputHook[0]  packet/sec  ETV
vector 419  University.accessPoint.wlan[0].inputHook[0]  "thruput (bit/sec)"  ETV
vector 420  University.accessPoint.wlan[0].inputHook[0]  packet/sec  ETV
vector 427  University.accessPoint.eth[0].outputHook[0]  "thruput (bit/sec)"  ETV
vector 428  University.accessPoint.eth[0].outputHook[0]  packet/sec  ETV
vector 275  University.remoteR.eth[0].inputHook[0]  "thruput (bit/sec)"  ETV
vector 276  University.remoteR.eth[0].inputHook[0]  packet/sec  ETV
vector 273  University.remoteR.eth[0].outputHook[0]  "thruput (bit/sec)"  ETV
vector 274  University.remoteR.eth[0].outputHook[0]  packet/sec  ETV
vector 281  University.remoteR.ppp[0].outputHook[0]  "thruput (bit/sec)"  ETV
vector 282  University.remoteR.ppp[0].outputHook[0]  packet/sec  ETV
vector 287  University.mainR.ppp[0].inputHook[0]  "thruput (bit/sec)"  ETV
vector 288  University.mainR.ppp[0].inputHook[0]  packet/sec  ETV
vector 297  University.mainR.ppp[3].outputHook[0]  "thruput (bit/sec)"  ETV
vector 298  University.mainR.ppp[3].outputHook[0]  packet/sec  ETV
vector 303  University.ccTVMonitoringHost.ppp[0].inputHook[0]  "thruput (bit/sec)"  ETV
vector 304  University.ccTVMonitoringHost.ppp[0].inputHook[0]  packet/sec  ETV
vector 369  University.whttpStudents[5].wlan[0].inputHook[0]  "thruput (bit/sec)"  ETV
vector 370  University.whttpStudents[5].wlan[0].inputHook[0]  packet/sec  ETV
vector 305  University.profLaptop.ppp[0].outputHook[0]  "thruput (bit/sec)"  ETV
vector 306  University.profLaptop.ppp[0].outputHook[0]  packet/sec  ETV
vector 291  University.mainR.ppp[1].inputHook[0]  "thruput (bit/sec)"  ETV
vector 292  University.mainR.ppp[1].inputHook[0]  packet/sec  ETV
vector 285  University.mainR.ppp[0].outputHook[0]  "thruput (bit/sec)"  ETV
vector 286  University.mainR.ppp[0].outputHook[0]  packet/sec  ETV
vector 293  University.mainR.ppp[2].outputHook[0]  "thruput (bit/sec)"  ETV
vector 294  University.mainR.ppp[2].outputHook[0]  packet/sec  ETV
vector 283  University.remoteR.ppp[0].inputHook[0]  "thruput (bit/sec)"  ETV
vector 284  University.remoteR.ppp[0].inputHook[0]  packet/sec  ETV
vector 397  University.whostVideoConf.wlan[0].outputHook[0]  "thruput (bit/sec)"  ETV
vector 398  University.whostVideoConf.wlan[0].outputHook[0]  packet/sec  ETV
vector 313  University.CCTV.eth[0].outputHook[0]  "thruput (bit/sec)"  ETV
vector 314  University.CCTV.eth[0].outputHook[0]  packet/sec  ETV
vector 279  University.remoteR.eth[1].inputHook[0]  "thruput (bit/sec)"  ETV
vector 280  University.remoteR.eth[1].inputHook[0]  packet/sec  ETV
vector 399  University.whostVideoConf.wlan[0].inputHook[0]  "thruput (bit/sec)"  ETV
vector 400  University.whostVideoConf.wlan[0].inputHook[0]  packet/sec  ETV
vector 289  University.mainR.ppp[1].outputHook[0]  "thruput (bit/sec)"  ETV
vector 290  University.mainR.ppp[1].outputHook[0]  packet/sec  ETV
vector 311  University.Server.ppp[0].inputHook[0]  "thruput (bit/sec)"  ETV
vector 312  University.Server.ppp[0].inputHook[0]  packet/sec  ETV
vector 309  University.Server.ppp[0].outputHook[0]  "thruput (bit/sec)"  ETV
vector 310  University.Server.ppp[0].outputHook[0]  packet/sec  ETV
vector 307  University.profLaptop.ppp[0].inputHook[0]  "thruput (bit/sec)"  ETV
vector 308  University.profLaptop.ppp[0].inputHook[0]  packet/sec  ETV
vector 295  University.mainR.ppp[2].inputHook[0]  "thruput (bit/sec)"  ETV
vector 296  University.mainR.ppp[2].inputHook[0]  packet/sec  ETV
vector 367  University.whttpStudents[5].wlan[0].outputHook[0]  "thruput (bit/sec)"  ETV
vector 368  University.whttpStudents[5].wlan[0].outputHook[0]  packet/sec  ETV
vector 409  University.whostFTP.wlan[0].inputHook[0]  "thruput (bit/sec)"  ETV
vector 410  University.whostFTP.wlan[0].inputHook[0]  packet/sec  ETV
vector 407  University.whostFTP.wlan[0].outputHook[0]  "thruput (bit/sec)"  ETV
vector 408  University.whostFTP.wlan[0].outputHook[0]  packet/sec  ETV
vector 197  University.whttpStudents[5].tcpApp[0]  rcvdPk:vector(packetBytes)  ETV
attr interpolationmode  none
attr source  rcvdPk
attr title  "packets received, vector(packetBytes)"
vector 199  University.whttpStudents[5].tcpApp[0]  endToEndDelay:vector  ETV
attr interpolationmode  none
attr source  messageAge(rcvdPk)
attr title  "end-to-end delay, vector"
attr unit  s
vector 200  University.whttpStudents[5].tcpApp[0]  numActiveSessions:vector  ETV
attr interpolationmode  sample-hold
attr source  sum(connect)
attr title  "number of active sessions, vector"
vector 188  University.whttpStudents[4].tcpApp[0]  numActiveSessions:vector  ETV
attr interpolationmode  sample-hold
attr source  sum(connect)
attr title  "number of active sessions, vector"
vector 186  University.whttpStudents[4].tcpApp[0]  sentPk:vector(packetBytes)  ETV
attr interpolationmode  none
attr source  sentPk
attr title  "packets sent, vector(packetBytes)"
vector 101  University.Server.tcpApp[0]  rcvdPk:vector(packetBytes)  ETV
attr interpolationmode  none
attr source  rcvdPk
attr title  "packets received, vector(packetBytes)"
vector 103  University.Server.tcpApp[0]  endToEndDelay:vector  ETV
attr interpolationmode  none
attr source  messageAge(rcvdPk)
attr title  "end-to-end delay, vector"
attr unit  s
vector 102  University.Server.tcpApp[0]  sentPk:vector(packetBytes)  ETV
attr interpolationmode  none
attr source  sentPk
attr title  "packets sent, vector(packetBytes)"
vector 359  University.whttpStudents[4].wlan[0].inputHook[0]  "thruput (bit/sec)"  ETV
vector 360  University.whttpStudents[4].wlan[0].inputHook[0]  packet/sec  ETV
vector 357  University.whttpStudents[4].wlan[0].outputHook[0]  "thruput (bit/sec)"  ETV
vector 358  University.whttpStudents[4].wlan[0].outputHook[0]  packet/sec  ETV
vector 185  University.whttpStudents[4].tcpApp[0]  rcvdPk:vector(packetBytes)  ETV
attr interpolationmode  none
attr source  rcvdPk
attr title  "packets received, vector(packetBytes)"
vector 187  University.whttpStudents[4].tcpApp[0]  endToEndDelay:vector  ETV
attr interpolationmode  none
attr source  messageAge(rcvdPk)
attr title  "end-to-end delay, vector"
attr unit  s
vector 152  University.whttpStudents[1].tcpApp[0]  numActiveSessions:vector  ETV
attr interpolationmode  sample-hold
attr source  sum(connect)
attr title  "number of active sessions, vector"
vector 379  University.whttpStudents[6].wlan[0].inputHook[0]  "thruput (bit/sec)"  ETV
vector 380  University.whttpStudents[6].wlan[0].inputHook[0]  packet/sec  ETV
vector 339  University.whttpStudents[2].wlan[0].inputHook[0]  "thruput (bit/sec)"  ETV
vector 340  University.whttpStudents[2].wlan[0].inputHook[0]  packet/sec  ETV
vector 389  University.whttpStudents[7].wlan[0].inputHook[0]  "thruput (bit/sec)"  ETV
vector 390  University.whttpStudents[7].wlan[0].inputHook[0]  packet/sec  ETV
vector 349  University.whttpStudents[3].wlan[0].inputHook[0]  "thruput (bit/sec)"  ETV
vector 350  University.whttpStudents[3].wlan[0].inputHook[0]  packet/sec  ETV
vector 319  University.whttpStudents[0].wlan[0].inputHook[0]  "thruput (bit/sec)"  ETV
vector 320  University.whttpStudents[0].wlan[0].inputHook[0]  packet/sec  ETV
vector 329  University.whttpStudents[1].wlan[0].inputHook[0]  "thruput (bit/sec)"  ETV
vector 330  University.whttpStudents[1].wlan[0].inputHook[0]  packet/sec  ETV
vector 150  University.whttpStudents[1].tcpApp[0]  sentPk:vector(packetBytes)  ETV
attr interpolationmode  none
attr source  sentPk
attr title  "packets sent, vector(packetBytes)"
vector 224  University.whttpStudents[7].tcpApp[0]  numActiveSessions:vector  ETV
attr interpolationmode  sample-hold
attr source  sum(connect)
attr title  "number of active sessions, vector"
vector 222  University.whttpStudents[7].tcpApp[0]  sentPk:vector(packetBytes)  ETV
attr interpolationmode  none
attr source  sentPk
attr title  "packets sent, vector(packetBytes)"
vector 327  University.whttpStudents[1].wlan[0].outputHook[0]  "thruput (bit/sec)"  ETV
vector 328  University.whttpStudents[1].wlan[0].outputHook[0]  packet/sec  ETV
vector 387  University.whttpStudents[7].wlan[0].outputHook[0]  "thruput (bit/sec)"  ETV
vector 388  University.whttpStudents[7].wlan[0].outputHook[0]  packet/sec  ETV
vector 176  University.whttpStudents[3].tcpApp[0]  numActiveSessions:vector  ETV
attr interpolationmode  sample-hold
attr source  sum(connect)
attr title  "number of active sessions, vector"
vector 174  University.whttpStudents[3].tcpApp[0]  sentPk:vector(packetBytes)  ETV
attr interpolationmode  none
attr source  sentPk
attr title  "packets sent, vector(packetBytes)"
vector 140  University.whttpStudents[0].tcpApp[0]  numActiveSessions:vector  ETV
attr interpolationmode  sample-hold
attr source  sum(connect)
attr title  "number of active sessions, vector"
vector 138  University.whttpStudents[0].tcpApp[0]  sentPk:vector(packetBytes)  ETV
attr interpolationmode  none
attr source  sentPk
attr title  "packets sent, vector(packetBytes)"
vector 347  University.whttpStudents[3].wlan[0].outputHook[0]  "thruput (bit/sec)"  ETV
vector 348  University.whttpStudents[3].wlan[0].outputHook[0]  packet/sec  ETV
vector 173  University.whttpStudents[3].tcpApp[0]  rcvdPk:vector(packetBytes)  ETV
attr interpolationmode  none
attr source  rcvdPk
attr title  "packets received, vector(packetBytes)"
vector 175  University.whttpStudents[3].tcpApp[0]  endToEndDelay:vector  ETV
attr interpolationmode  none
attr source  messageAge(rcvdPk)
attr title  "end-to-end delay, vector"
attr unit  s
vector 317  University.whttpStudents[0].wlan[0].outputHook[0]  "thruput (bit/sec)"  ETV
vector 318  University.whttpStudents[0].wlan[0].outputHook[0]  packet/sec  ETV
vector 137  University.whttpStudents[0].tcpApp[0]  rcvdPk:vector(packetBytes)  ETV
attr interpolationmode  none
attr source  rcvdPk
attr title  "packets received, vector(packetBytes)"
vector 139  University.whttpStudents[0].tcpApp[0]  endToEndDelay:vector  ETV
attr interpolationmode  none
attr source  messageAge(rcvdPk)
attr title  "end-to-end delay, vector"
attr unit  s
vector 221  University.whttpStudents[7].tcpApp[0]  rcvdPk:vector(packetBytes)  ETV
attr interpolationmode  none
attr source  rcvdPk
attr title  "packets received, vector(packetBytes)"
vector 223  University.whttpStudents[7].tcpApp[0]  endToEndDelay:vector  ETV
attr interpolationmode  none
attr source  messageAge(rcvdPk)
attr title  "end-to-end delay, vector"
attr unit  s
vector 212  University.whttpStudents[6].tcpApp[0]  numActiveSessions:vector  ETV
attr interpolationmode  sample-hold
attr source  sum(connect)
attr title  "number of active sessions, vector"
vector 210  University.whttpStudents[6].tcpApp[0]  sentPk:vector(packetBytes)  ETV
attr interpolationmode  none
attr source  sentPk
attr title  "packets sent, vector(packetBytes)"
vector 377  University.whttpStudents[6].wlan[0].outputHook[0]  "thruput (bit/sec)"  ETV
vector 378  University.whttpStudents[6].wlan[0].outputHook[0]  packet/sec  ETV
vector 209  University.whttpStudents[6].tcpApp[0]  rcvdPk:vector(packetBytes)  ETV
attr interpolationmode  none
attr source  rcvdPk
attr title  "packets received, vector(packetBytes)"
vector 211  University.whttpStudents[6].tcpApp[0]  endToEndDelay:vector  ETV
attr interpolationmode  none
attr source  messageAge(rcvdPk)
attr title  "end-to-end delay, vector"
attr unit  s
vector 104  University.Server.tcpApp[1]  rcvdPk:vector(packetBytes)  ETV
attr interpolationmode  none
attr source  rcvdPk
attr title  "packets received, vector(packetBytes)"
vector 106  University.Server.tcpApp[1]  endToEndDelay:vector  ETV
attr interpolationmode  none
attr source  messageAge(rcvdPk)
attr title  "end-to-end delay, vector"
attr unit  s
vector 105  University.Server.tcpApp[1]  sentPk:vector(packetBytes)  ETV
attr interpolationmode  none
attr source  sentPk
attr title  "packets sent, vector(packetBytes)"
vector 249  University.whostFTP.tcpApp[0]  rcvdPk:vector(packetBytes)  ETV
attr interpolationmode  none
attr source  rcvdPk
attr title  "packets received, vector(packetBytes)"
vector 251  University.whostFTP.tcpApp[0]  endToEndDelay:vector  ETV
attr interpolationmode  none
attr source  messageAge(rcvdPk)
attr title  "end-to-end delay, vector"
attr unit  s
vector 252  University.whostFTP.tcpApp[0]  numActiveSessions:vector  ETV
attr interpolationmode  sample-hold
attr source  sum(connect)
attr title  "number of active sessions, vector"
vector 250  University.whostFTP.tcpApp[0]  sentPk:vector(packetBytes)  ETV
attr interpolationmode  none
attr source  sentPk
attr title  "packets sent, vector(packetBytes)"
vector 198  University.whttpStudents[5].tcpApp[0]  sentPk:vector(packetBytes)  ETV
attr interpolationmode  none
attr source  sentPk
attr title  "packets sent, vector(packetBytes)"
vector 149  University.whttpStudents[1].tcpApp[0]  rcvdPk:vector(packetBytes)  ETV
attr interpolationmode  none
attr source  rcvdPk
attr title  "packets received, vector(packetBytes)"
vector 151  University.whttpStudents[1].tcpApp[0]  endToEndDelay:vector  ETV
attr interpolationmode  none
attr source  messageAge(rcvdPk)
attr title  "end-to-end delay, vector"
attr unit  s
vector 164  University.whttpStudents[2].tcpApp[0]  numActiveSessions:vector  ETV
attr interpolationmode  sample-hold
attr source  sum(connect)
attr title  "number of active sessions, vector"
vector 162  University.whttpStudents[2].tcpApp[0]  sentPk:vector(packetBytes)  ETV
attr interpolationmode  none
attr source  sentPk
attr title  "packets sent, vector(packetBytes)"
vector 337  University.whttpStudents[2].wlan[0].outputHook[0]  "thruput (bit/sec)"  ETV
vector 338  University.whttpStudents[2].wlan[0].outputHook[0]  packet/sec  ETV
vector 161  University.whttpStudents[2].tcpApp[0]  rcvdPk:vector(packetBytes)  ETV
attr interpolationmode  none
attr source  rcvdPk
attr title  "packets received, vector(packetBytes)"
vector 163  University.whttpStudents[2].tcpApp[0]  endToEndDelay:vector  ETV
attr interpolationmode  none
attr source  messageAge(rcvdPk)
attr title  "end-to-end delay, vector"
attr unit  s
vector 277  University.remoteR.eth[1].outputHook[0]  "thruput (bit/sec)"  ETV
vector 278  University.remoteR.eth[1].outputHook[0]  packet/sec  ETV
vector 315  University.CCTV.eth[0].inputHook[0]  "thruput (bit/sec)"  ETV
vector 316  University.CCTV.eth[0].inputHook[0]  packet/sec  ETV
64	16557 2148972 324428 147753106 5.009041516791 2407.809010183458 60071 10240 10240 615127040 6298900889600
65	2165529 2689317 324428 147753106 5.009041516791 2407.809010183458 60071 0.017080129996 0.068781461249 1043.5363477613 18.392044655647
82	4854846 2086538 323055 147755461 5.000238977935 2407.840238977935 60072 1400 1400 84100800 117741120000
83	6941384 2089187 324280 147753068 5.006907812999 2407.806907812999 60071 1400 1400 84099400 117739160000
84	9030571 2684598 323055 147755461 5.000238977935 2407.840238977935 60072 0.016345620225 0.163023572923 1018.8515462448 17.77874512353
101	11715169 22405 511431 147532689 8.870511926365 2404.391441926365 685 1 1 685 685
102	11737574 25964 511431 147532689 8.870511926365 2404.391441926365 685 5422 5303630 568939729 9.2097930072264e+14
103	11763538 31220 511431 147532689 8.870511926365 2404.391441926365 685 0.113174264763 0.162194593569 78.424468080596 8.9855318795525
104	11794758 5863 1965268 147314013 39.771489498747 2400.257912460639 151 1048576 1048576 158334976 1.6602625579418e+14
105	11800621 4957 1965268 147314013 39.771489498747 2400.257912460639 151 1 1 151 151
106	11805578 7034 1965268 147314013 39.771489498747 2400.257912460639 151 3.497879077471 44.089903862218 2317.951427965 42512.976181147
119	11812612 2209331 324739 147753646 5.031930053462 2407.831930053462 60071 10240 10240 615127040 6298900889600
137	14021943 3888 1141179 144722146 20.832501740696 2368.107659628166 103 5563 5303630 70261643 1.1307716206583e+14
138	14025831 3404 1025922 145328953 19.012758316918 2372.037836385315 104 1 1 104 104
139	14029235 4714 1141179 144722146 20.832501740696 2368.107659628166 103 0.589012669528 80.6729807354 891.72648000809 25764.16521032
140	14033949 6763 1020799 144820548 18.819310105244 2368.830190306625 207 0 1 104 104
149	14040712 2890 2766995 144973237 54.045611444726 2369.645878759259 76 7314 3687170 73968490 1.2622481198357e+14
150	14043602 2521 666890 146429044 13.846454614523 2383.574472558405 77 1 1 77 77
151	14046123 3496 2766995 144973237 54.045611444726 2369.645878759259 76 0.582968525438 56.62548359646 1104.2247776499 35110.622598744
152	14049619 5011 664146 146423047 13.652997500445 2383.382609474453 153 0 1 77 77
161	14054630 2784 3108912 147078146 57.317082926492 2393.114041532143 73 27829 3495383 67914942 1.0098262109551e+14
162	14057414 2421 3072286 147530220 56.317191211902 2404.277115169208 74 1 1 74 74
163	14059835 3366 3108912 147078146 57.317082926492 2393.114041532143 73 0.99989171459 155.65875771988 1182.5508352254 57435.839282594
164	14063201 4820 3053467 147524957 56.118044279435 2404.085252054364 147 0 1 74 74
173	14068021 3553 1040318 147006629 19.371812911717 2391.032155887113 94 30543 2925271 67146181 88456858664623
174	14071574 3101 1009218 147512828 18.174277481657 2403.474615402115 95 1 1 95 95
175	14074675 4304 1040318 147006629 19.371812911717 2391.032155887113 94 0.980439847319 71.2450508791 942.4450391299 27028.018410158
176	14078979 6167 1005927 147509403 17.980811276947 2403.282752272847 189 0 1 95 95
185	14085146 2977 627633 142663463 10.671715014704 2326.819478030322 79 10556 3025512 54770788 64732855240242
186	14088123 2602 509650 144918589 8.75187580466 2369.264401604053 80 1 1 80 80
187	14090725 3607 627633 142663463 10.671715014704 2326.819478030322 79 0.78390899863 40.756830259572 746.22761084904 17918.928025474
188	14094332 5170 506943 144866987 8.558409624662 2369.035326234781 159 0 1 80 80
197	14099502 3221 494460 146472219 7.554268835872 2384.692710472125 85 31643 5037761 72450479 1.221282184945e+14
198	14102723 2748 2710645 146094397 52.589867447925 2379.870797447925 84 1 1 84 84
199	14105471 3898 494460 146472219 7.554268835872 2384.692710472125 85 0.984659644711 76.214014926805 889.17214518222 25428.996425276
200	14109369 5615 494460 146472219 7.554268835872 2384.692710472125 169 -1 0 -85 85
209	14114984 3421 1656912 147701292 31.928748418724 2405.699881744782 90 28557 5065978 77181484 1.3788852626283e+14
210	14118405 2948 1532965 146076948 30.009331784578 2378.997438327969 90 1 1 90 90
211	14121353 4141 1656912 147701292 31.928748418724 2405.699881744782 90 1.01122714927 71.901575701897 994.92909285287 31379.043934329
212	14125494 5900 1529709 147701292 29.815874647804 2405.699881744782 180 0 1 90 90
221	14131394 3080 1451298 147333267 25.161040682232 2401.299495882398 81 5422 3968935 77823245 1.4776368854059e+14
222	14134474 2644 670799 147139628 14.093562651306 2396.76813353854 81 1 1 81 81
223	14137118 3724 1451298 147333267 25.161040682232 2401.299495882398 81 0.580768429845 101.72188742531 1100.9471654758 44300.683502332
224	14140842 5308 667635 147333267 13.900114463296 2401.299495882398 162 0 1 81 81
233	14146150 2129704 324569 147753399 5.023254873224 2407.823254873224 59553 1400 1400 83374200 116723880000
234	16275854 2089187 324632 147753469 5.02389335771 2407.82389335771 60071 1400 1400 84099400 117739160000
235	18365041 2724139 324569 147753399 5.023254873224 2407.823254873224 59553 0.016320313411 0.189230877472 1358.1292913994 61.954191254437
249	21089180 4951 1966749 147315523 39.851267089423 2400.337708051315 151 1 1 151 151
250	21094131 5854 1972629 147322813 40.236860478489 2400.723274440381 151 1048576 1048576 158334976 1.6602625579418e+14
251	21099985 7018 1966749 147315523 39.851267089423 2400.337708051315 151 3.577692668147 44.175113691241 2334.1541541198 43029.982234322
252	21107003 10044 1966749 147319262 39.851267089423 2400.530704231323 302 -1 0 -151 151
273	21117047 97716 372374 147744640 5.00288231061 2406.542864479665 2393 287200 10884085.330617 5467815836.984 2.5503233202781e+16
274	21214763 91392 372374 147744640 5.00288231061 2406.542864479665 2393 30 963.59490091384 570664.52476624 244246132.28889
275	21306155 99774 372353 147752601 5.00286424753 2406.784282311269 2390 283342.38241135 6809342.878232 2137772300.1861 5.48044307862e+15
276	21405929 94878 372353 147752601 5.00286424753 2406.784282311269 2390 29.995789997017 949.82727444644 569686.17780251 238352805.48029
277	21500807 892 13289562 147324474 120.031935863462 2280.751935863462 19 1.8660446517827 1.8660446517827 35.454848383872 66.160330206492
278	21501699 949 13289562 147324474 120.031935863462 2280.751935863462 19 0.0083305564811729 0.0083305564811729 0.15828057314229 0.0013185652544342
279	21502648 93163 375084 147729601 5.032052183462 2406.032175223461 2402 2077600 2089367.2027084 4990411423.0587 1.0368112617034e+16
280	21595811 83563 375084 147729601 5.032052183462 2406.032175223461 2402 175 176 420370.97834717 73568613.378592
281	21679374 93201 372574 147729603 5.003902288811 2406.032175223461 2402 2369600 9288000 7140118796.8758 2.4744491727705e+16
282	21772575 83641 372574 147729603 5.003902288811 2406.032175223461 2402 205 1089 993574.65252113 515987036.59211
283	21856216 97695 374832 147744638 5.022864479665 2406.542864479665 2393 287200 10884085.330617 5467739835.9092 2.5502796573771e+16
284	21953911 91341 374832 147744638 5.022864479665 2406.542864479665 2393 30 963.59490091384 570472.62251174 244155244.782
285	22045252 92136 374169 147729050 5.011907812999 2406.011907812999 2402 287200 13717248 5845849248 3.2004268168313e+16
286	22137388 82647 374169 147729050 5.011907812999 2406.011907812999 2402 29 1315 602332 291570172
287	22220035 96212 372608 147728914 5.004061516794 2406.003056850128 2401 2364543.0100931 9185996.6864111 7136772307.2441 2.4806647917117e+16
288	22316247 88318 372608 147728914 5.004061516794 2406.003056850128 2401 205 1113 993109.01000362 515494969.98713
289	22404565 97497 376423 147738241 5.115238977935 2406.315238977935 2385 273356.93440433 297635.66763722 681152580.54344 1.945398613749e+14
290	22502062 91329 376423 147738241 5.115238977935 2406.315238977935 2385 23.928303081611 26.053542335191 59624.700677822 1490638.085618
291	22593391 90745 374167 147729048 5.011907812999 2406.011907812999 2402 285600 285600 686011200 1.9592479872e+14
292	22684136 81137 374167 147729048 5.011907812999 2406.011907812999 2402 25 25 60050 1501250
293	22765273 105330 374595 147735696 5.013933622144 2406.249041516791 2298 5798.1251160475 6512826.6352641 1424318297.7786 4.3525549320864e+15
294	22870603 104781 374595 147735696 5.013933622144 2406.249041516791 2298 5.1163681594862 889.69767598761 499193.41044561 207604177.87399
295	22975384 105076 384794 147724947 5.185687082638 2405.836368008149 2285 1637.2378110356 12774129.246681 4979957593.3591 2.6844453400651e+16
296	23080460 104426 384794 147724947 5.185687082638 2405.836368008149 2285 5.1163681594862 1078.9203432323 524053.69673264 247520867.08667
297	23184886 95073 372610 147728984 5.004061516794 2406.00506618346 2400 1973403.6812197 2196610.5660251 4986284159.7814 1.035987935507e+16
298	23279959 86685 372610 147728984 5.004061516794 2406.00506618346 2400 166.26528847485 184.99213126332 420003.6687338 73503270.769424
303	23366644 95073 372615 147728989 5.004061516794 2406.00506618346 2400 1973403.6812197 2196610.5660251 4986284159.7814 1.035987935507e+16
304	23461717 86685 372615 147728989 5.004061516794 2406.00506618346 2400 166.26528847485 184.99213126332 420003.6687338 73503270.769424
305	23548402 90745 373004 147729004 5.006907812999 2406.006907812999 2402 285600 285600 686011200 1.9592479872e+14
306	23639147 81137 373004 147729004 5.006907812999 2406.006907812999 2402 25 25 60050 1501250
307	23720284 97497 376471 147738253 5.120238977935 2406.320238977935 2385 273356.93440433 297635.66763722 681152580.54344 1.945398613749e+14
308	23817781 91329 376471 147738253 5.120238977935 2406.320238977935 2385 23.928303081611 26.053542335191 59624.700677822 1490638.085618
309	23909110 104818 376443 147752408 5.116301951719 2406.777638640843 2285 1637.2378110356 16737606.325974 5226048601.8486 3.037053519462e+16
310	24013928 104122 376443 147752408 5.116301951719 2406.777638640843 2285 5.1163681594862 1405.5840575857 544607.80939012 273878511.81531
311	24118050 104933 376439 147738674 5.116301951719 2406.351409846366 2298 5798.1251160475 6512826.6352641 1424601364.8187 4.3665531557881e+15
312	24222983 104377 376439 147738674 5.116301951719 2406.351409846366 2298 5.1163681594862 889.82940407339 499229.80064057 207445372.58288
313	24327360 93147 375060 147729568 5.031930053462 2406.031930053462 2402 2077600 2077824 4990399680 1.036806368382e+16
314	24420507 83539 375060 147729568 5.031930053462 2406.031930053462 2402 175 176 420370 73568270
315	24504046 892 13289569 147324481 120.031941673462 2280.751941673462 19 1.8660446517827 1.8660446517827 35.454848383872 66.160330206492
316	24504938 949 13289569 147324481 120.031941673462 2280.751941673462 19 0.0083305564811729 0.0083305564811729 0.15828057314229 0.0013185652544342
317	24505887 40793 1054376 147725971 18.819310105244 2405.690009838217 882 6.9039087096493 186746.00036355 13969724.464338 1322133323050.2
318	24546680 40899 1054376 147725971 18.819310105244 2405.690009838217 882 0.021574714717654 583.58125113611 43639.648928966 12911233.363426
319	24587579 44055 664331 147725967 8.559569695667 2405.690009838217 950 5.4576540221975 7183897.4656327 501206390.7142 1.9306105422924e+15
320	24631634 44166 664331 147725967 8.559569695667 2405.690009838217 950 0.02436452688481 598.65812213606 42138.794292953 13437816.136427
327	24675800 48332 685134 147734815 13.652997500445 2406.075175341722 1040 5.923140695948 196186.29588781 15321547.897386 1478135834715.3
328	24724132 48378 685134 147734815 13.652997500445 2406.075175341722 1040 0.018509814674837 613.08217464942 47869.695105971 14434606.859845
329	24772510 50698 664353 147734811 8.559569671268 2406.075175341722 1090 4.7913790400412 7214449.9577492 559554086.91094 2.2080370176063e+15
330	24823208 50751 664353 147734811 8.559569671268 2406.075175341722 1090 0.021390085000184 601.20416314577 46971.486741513 15368762.996464
337	24873959 48650 3103371 147740452 56.118044279435 2406.273212471125 1051 4.3948391927166 190775.78049652 13380242.583349 1170935486145.5
338	24922609 48615 3103371 147740452 56.118044279435 2406.273212471125 1051 0.013733872477239 596.17431405162 41803.345831001 11434865.732355
339	24971224 51694 664301 147753965 8.559569686714 2406.670273137793 1115 3.9627223966914 7186738.0710894 491215445.74597 1.775700950315e+15
340	25022918 51681 664301 147753965 8.559569686714 2406.670273137793 1115 0.017690724985229 598.89483925745 41242.414291114 12362715.430516
347	25074599 39872 1027982 147752794 17.980811276947 2406.630273145005 861 2.7732179374886 193998.5412723 13084132.715272 1061612938604.1
348	25114471 39925 1027982 147752794 17.980811276947 2406.630273145005 861 0.0086663060546518 606.24544147593 40873.803908098 10367077.536198
349	25154396 42490 664319 147724411 8.559569693926 2405.654193366601 916 4.8873996550983 7274945.2977112 468440916.99177 1.5842149618349e+15
350	25196886 42597 664319 147724411 8.559569693926 2405.654193366601 916 0.02181874846026 606.24544147593 39402.849803966 11030235.842003
357	25239483 35279 525247 147731085 8.558409624662 2405.885624627208 759 2.3184192612481 196545.72283428 11160602.056629 1025324255217
358	25274762 35369 525247 147731085 8.558409624662 2405.885624627208 759 0.0072450601914002 614.20538385713 34865.849388826 10012614.699373
359	25310131 39169 525243 147726205 8.559698687748 2405.691014496964 841 4.073634433297 7171329.5546345 406556357.25871 1.5601360243637e+15