file 62675249 1471642269                                        
version 2
run _8to13on-5-20160819-23:13:58-10417
attr configname _8to13on
attr datetime 20160819-23:13:58
attr experiment _8to13on
attr inifile omnetpp.ini
attr iterationvars $0=8
attr iterationvars2 "$0=8, $repetition=5"
attr measurement $0=8
attr network University
attr processid 10417
attr repetition 5
attr replication #5
attr resultdir results
attr runnumber 5
attr seedset 5

vector 119  University.CCTV.udpApp[0]  sentPk:vector(packetBytes)  ETV
attr interpolationmode  none
attr source  sentPk
attr title  "packets sent, vector(packetBytes)"
vector 233  University.whostVideoConf.udpApp[0]  rcvdPk:vector(packetBytes)  ETV
attr interpolationmode  none
attr source  rcvdPk
attr title  "packets received, vector(packetBytes)"
vector 235  University.whostVideoConf.udpApp[0]  rcvdPkLifetime:vector  ETV
attr interpolationmode  none
attr source  messageAge(rcvdPk)
attr title  "received packet lifetime, vector"
attr unit  s
vector 234  University.whostVideoConf.udpApp[0]  sentPk:vector(packetBytes)  ETV
attr interpolationmode  none
attr source  sentPk
attr title  "packets sent, vector(packetBytes)"
vector 64  University.ccTVMonitoringHost.udpApp[0]  rcvdPk:vector(packetBytes)  ETV
attr interpolationmode  none
attr source  rcvdPk
attr title  "packets received, vector(packetBytes)"
vector 65  University.ccTVMonitoringHost.udpApp[0]  endToEndDelay:vector  ETV
attr interpolationmode  none
attr source  messageAge(rcvdPk)
attr title  "end-to-end delay, vector"
attr unit  s
vector 82  University.profLaptop.udpApp[0]  rcvdPk:vector(packetBytes)  ETV
attr interpolationmode  none
attr source  rcvdPk
attr title  "packets received, vector(packetBytes)"
vector 84  University.profLaptop.udpApp[0]  rcvdPkLifetime:vector  ETV
attr interpolationmode  none
attr source  messageAge(rcvdPk)
attr title  "received packet lifetime, vector"
attr unit  s
vector 83  University.profLaptop.udpApp[0]  sentPk:vector(packetBytes)  ETV
attr interpolationmode  none
attr source  sentPk
attr title  "packets sent, vector(packetBytes)"
vector 313  University.CCTV.eth[0].outputHook[0]  "thruput (bit/sec)"  ETV
vector 314  University.CCTV.eth[0].outputHook[0]  packet/sec  ETV
vector 279  University.remoteR.eth[1].inputHook[0]  "thruput (bit/sec)"  ETV
vector 280  University.remoteR.eth[1].inputHook[0]  packet/sec  ETV
vector 281  University.remoteR.ppp[0].outputHook[0]  "thruput (bit/sec)"  ETV
vector 282  University.remoteR.ppp[0].outputHook[0]  packet/sec  ETV
vector 397  University.whostVideoConf.wlan[0].outputHook[0]  "thruput (bit/sec)"  ETV
vector 398  University.whostVideoConf.wlan[0].outputHook[0]  packet/sec  ETV
vector 419  University.accessPoint.wlan[0].inputHook[0]  "thruput (bit/sec)"  ETV
vector 420  University.accessPoint.wlan[0].inputHook[0]  packet/sec  ETV
vector 427  University.accessPoint.eth[0].outputHook[0]  "thruput (bit/sec)"  ETV
vector 428  University.accessPoint.eth[0].outputHook[0]  packet/sec  ETV
vector 275  University.remoteR.eth[0].inputHook[0]  "thruput (bit/sec)"  ETV
vector 276  University.remoteR.eth[0].inputHook[0]  packet/sec  ETV
vector 287  University.mainR.ppp[0].inputHook[0]  "thruput (bit/sec)"  ETV
vector 288  University.mainR.ppp[0].inputHook[0]  packet/sec  ETV
vector 297  University.mainR.ppp[3].outputHook[0]  "thruput (bit/sec)"  ETV
vector 298  University.mainR.ppp[3].outputHook[0]  packet/sec  ETV
vector 303  University.ccTVMonitoringHost.ppp[0].inputHook[0]  "thruput (bit/sec)"  ETV
vector 304  University.ccTVMonitoringHost.ppp[0].inputHook[0]  packet/sec  ETV
vector 283  University.remoteR.ppp[0].inputHook[0]  "thruput (bit/sec)"  ETV
vector 284  University.remoteR.ppp[0].inputHook[0]  packet/sec  ETV
vector 273  University.remoteR.eth[0].outputHook[0]  "thruput (bit/sec)"  ETV
vector 274  University.remoteR.eth[0].outputHook[0]  packet/sec  ETV
vector 429  University.accessPoint.eth[0].inputHook[0]  "thruput (bit/sec)"  ETV
vector 430  University.accessPoint.eth[0].inputHook[0]  packet/sec  ETV
vector 417  University.accessPoint.wlan[0].outputHook[0]  "thruput (bit/sec)"  ETV
vector 418  University.accessPoint.wlan[0].outputHook[0]  packet/sec  ETV
vector 305  University.profLaptop.ppp[0].outputHook[0]  "thruput (bit/sec)"  ETV
vector 306  University.profLaptop.ppp[0].outputHook[0]  packet/sec  ETV
vector 293  University.mainR.ppp[2].outputHook[0]  "thruput (bit/sec)"  ETV
vector 294  University.mainR.ppp[2].outputHook[0]  packet/sec  ETV
vector 291  University.mainR.ppp[1].inputHook[0]  "thruput (bit/sec)"  ETV
vector 292  University.mainR.ppp[1].inputHook[0]  packet/sec  ETV
vector 285  University.mainR.ppp[0].outputHook[0]  "thruput (bit/sec)"  ETV
vector 286  University.mainR.ppp[0].outputHook[0]  packet/sec  ETV
vector 311  University.Server.ppp[0].inputHook[0]  "thruput (bit/sec)"  ETV
vector 312  University.Server.ppp[0].inputHook[0]  packet/sec  ETV
vector 399  University.whostVideoConf.wlan[0].inputHook[0]  "thruput (bit/sec)"  ETV
vector 400  University.whostVideoConf.wlan[0].inputHook[0]  packet/sec  ETV
vector 329  University.whttpStudents[1].wlan[0].inputHook[0]  "thruput (bit/sec)"  ETV
vector 330  University.whttpStudents[1].wlan[0].inputHook[0]  packet/sec  ETV
vector 309  University.Server.ppp[0].outputHook[0]  "thruput (bit/sec)"  ETV
vector 310  University.Server.ppp[0].outputHook[0]  packet/sec  ETV
vector 295  University.mainR.ppp[2].inputHook[0]  "thruput (bit/sec)"  ETV
vector 296  University.mainR.ppp[2].inputHook[0]  packet/sec  ETV
vector 359  University.whttpStudents[4].wlan[0].inputHook[0]  "thruput (bit/sec)"  ETV
vector 360  University.whttpStudents[4].wlan[0].inputHook[0]  packet/sec  ETV
vector 357  University.whttpStudents[4].wlan[0].outputHook[0]  "thruput (bit/sec)"  ETV
vector 358  University.whttpStudents[4].wlan[0].outputHook[0]  packet/sec  ETV
vector 409  University.whostFTP.wlan[0].inputHook[0]  "thruput (bit/sec)"  ETV
vector 410  University.whostFTP.wlan[0].inputHook[0]  packet/sec  ETV
vector 407  University.whostFTP.wlan[0].outputHook[0]  "thruput (bit/sec)"  ETV
vector 408  University.whostFTP.wlan[0].outputHook[0]  packet/sec  ETV
vector 289  University.mainR.ppp[1].outputHook[0]  "thruput (bit/sec)"  ETV
vector 290  University.mainR.ppp[1].outputHook[0]  packet/sec  ETV
vector 307  University.profLaptop.ppp[0].inputHook[0]  "thruput (bit/sec)"  ETV
vector 308  University.profLaptop.ppp[0].inputHook[0]  packet/sec  ETV
vector 104  University.Server.tcpApp[1]  rcvdPk:vector(packetBytes)  ETV
attr interpolationmode  none
attr source  rcvdPk
attr title  "packets received, vector(packetBytes)"
vector 106  University.Server.tcpApp[1]  endToEndDelay:vector  ETV
attr interpolationmode  none
attr source  messageAge(rcvdPk)
attr title  "end-to-end delay, vector"
attr unit  s
vector 105  University.Server.tcpApp[1]  sentPk:vector(packetBytes)  ETV
attr interpolationmode  none
attr source  sentPk
attr title  "packets sent, vector(packetBytes)"
vector 249  University.whostFTP.tcpApp[0]  rcvdPk:vector(packetBytes)  ETV
attr interpolationmode  none
attr source  rcvdPk
attr title  "packets received, vector(packetBytes)"
vector 251  University.whostFTP.tcpApp[0]  endToEndDelay:vector  ETV
attr interpolationmode  none
attr source  messageAge(rcvdPk)
attr title  "end-to-end delay, vector"
attr unit  s
vector 252  University.whostFTP.tcpApp[0]  numActiveSessions:vector  ETV
attr interpolationmode  sample-hold
attr source  sum(connect)
attr title  "number of active sessions, vector"
vector 250  University.whostFTP.tcpApp[0]  sentPk:vector(packetBytes)  ETV
attr interpolationmode  none
attr source  sentPk
attr title  "packets sent, vector(packetBytes)"
vector 327  University.whttpStudents[1].wlan[0].outputHook[0]  "thruput (bit/sec)"  ETV
vector 328  University.whttpStudents[1].wlan[0].outputHook[0]  packet/sec  ETV
vector 149  University.whttpStudents[1].tcpApp[0]  rcvdPk:vector(packetBytes)  ETV
attr interpolationmode  none
attr source  rcvdPk
attr title  "packets received, vector(packetBytes)"
vector 151  University.whttpStudents[1].tcpApp[0]  endToEndDelay:vector  ETV
attr interpolationmode  none
attr source  messageAge(rcvdPk)
attr title  "end-to-end delay, vector"
attr unit  s
vector 152  University.whttpStudents[1].tcpApp[0]  numActiveSessions:vector  ETV
attr interpolationmode  sample-hold
attr source  sum(connect)
attr title  "number of active sessions, vector"
vector 212  University.whttpStudents[6].tcpApp[0]  numActiveSessions:vector  ETV
attr interpolationmode  sample-hold
attr source  sum(connect)
attr title  "number of active sessions, vector"
vector 185  University.whttpStudents[4].tcpApp[0]  rcvdPk:vector(packetBytes)  ETV
attr interpolationmode  none
attr source  rcvdPk
attr title  "packets received, vector(packetBytes)"
vector 187  University.whttpStudents[4].tcpApp[0]  endToEndDelay:vector  ETV
attr interpolationmode  none
attr source  messageAge(rcvdPk)
attr title  "end-to-end delay, vector"
attr unit  s
vector 188  University.whttpStudents[4].tcpApp[0]  numActiveSessions:vector  ETV
attr interpolationmode  sample-hold
attr source  sum(connect)
attr title  "number of active sessions, vector"
vector 176  University.whttpStudents[3].tcpApp[0]  numActiveSessions:vector  ETV
attr interpolationmode  sample-hold
attr source  sum(connect)
attr title  "number of active sessions, vector"
vector 339  University.whttpStudents[2].wlan[0].inputHook[0]  "thruput (bit/sec)"  ETV
vector 340  University.whttpStudents[2].wlan[0].inputHook[0]  packet/sec  ETV
vector 319  University.whttpStudents[0].wlan[0].inputHook[0]  "thruput (bit/sec)"  ETV
vector 320  University.whttpStudents[0].wlan[0].inputHook[0]  packet/sec  ETV
vector 379  University.whttpStudents[6].wlan[0].inputHook[0]  "thruput (bit/sec)"  ETV
vector 380  University.whttpStudents[6].wlan[0].inputHook[0]  packet/sec  ETV
vector 389  University.whttpStudents[7].wlan[0].inputHook[0]  "thruput (bit/sec)"  ETV
vector 390  University.whttpStudents[7].wlan[0].inputHook[0]  packet/sec  ETV
vector 369  University.whttpStudents[5].wlan[0].inputHook[0]  "thruput (bit/sec)"  ETV
vector 370  University.whttpStudents[5].wlan[0].inputHook[0]  packet/sec  ETV
vector 349  University.whttpStudents[3].wlan[0].inputHook[0]  "thruput (bit/sec)"  ETV
vector 350  University.whttpStudents[3].wlan[0].inputHook[0]  packet/sec  ETV
vector 174  University.whttpStudents[3].tcpApp[0]  sentPk:vector(packetBytes)  ETV
attr interpolationmode  none
attr source  sentPk
attr title  "packets sent, vector(packetBytes)"
vector 101  University.Server.tcpApp[0]  rcvdPk:vector(packetBytes)  ETV
attr interpolationmode  none
attr source  rcvdPk
attr title  "packets received, vector(packetBytes)"
vector 103  University.Server.tcpApp[0]  endToEndDelay:vector  ETV
attr interpolationmode  none
attr source  messageAge(rcvdPk)
attr title  "end-to-end delay, vector"
attr unit  s
vector 102  University.Server.tcpApp[0]  sentPk:vector(packetBytes)  ETV
attr interpolationmode  none
attr source  sentPk
attr title  "packets sent, vector(packetBytes)"
vector 173  University.whttpStudents[3].tcpApp[0]  rcvdPk:vector(packetBytes)  ETV
attr interpolationmode  none
attr source  rcvdPk
attr title  "packets received, vector(packetBytes)"
vector 175  University.whttpStudents[3].tcpApp[0]  endToEndDelay:vector  ETV
attr interpolationmode  none
attr source  messageAge(rcvdPk)
attr title  "end-to-end delay, vector"
attr unit  s
vector 377  University.whttpStudents[6].wlan[0].outputHook[0]  "thruput (bit/sec)"  ETV
vector 378  University.whttpStudents[6].wlan[0].outputHook[0]  packet/sec  ETV
vector 210  University.whttpStudents[6].tcpApp[0]  sentPk:vector(packetBytes)  ETV
attr interpolationmode  none
attr source  sentPk
attr title  "packets sent, vector(packetBytes)"
vector 150  University.whttpStudents[1].tcpApp[0]  sentPk:vector(packetBytes)  ETV
attr interpolationmode  none
attr source  sentPk
attr title  "packets sent, vector(packetBytes)"
vector 200  University.whttpStudents[5].tcpApp[0]  numActiveSessions:vector  ETV
attr interpolationmode  sample-hold
attr source  sum(connect)
attr title  "number of active sessions, vector"
vector 198  University.whttpStudents[5].tcpApp[0]  sentPk:vector(packetBytes)  ETV
attr interpolationmode  none
attr source  sentPk
attr title  "packets sent, vector(packetBytes)"
vector 347  University.whttpStudents[3].wlan[0].outputHook[0]  "thruput (bit/sec)"  ETV
vector 348  University.whttpStudents[3].wlan[0].outputHook[0]  packet/sec  ETV
vector 367  University.whttpStudents[5].wlan[0].outputHook[0]  "thruput (bit/sec)"  ETV
vector 368  University.whttpStudents[5].wlan[0].outputHook[0]  packet/sec  ETV
vector 209  University.whttpStudents[6].tcpApp[0]  rcvdPk:vector(packetBytes)  ETV
attr interpolationmode  none
attr source  rcvdPk
attr title  "packets received, vector(packetBytes)"
vector 211  University.whttpStudents[6].tcpApp[0]  endToEndDelay:vector  ETV
attr interpolationmode  none
attr source  messageAge(rcvdPk)
attr title  "end-to-end delay, vector"
attr unit  s
vector 224  University.whttpStudents[7].tcpApp[0]  numActiveSessions:vector  ETV
attr interpolationmode  sample-hold
attr source  sum(connect)
attr title  "number of active sessions, vector"
vector 222  University.whttpStudents[7].tcpApp[0]  sentPk:vector(packetBytes)  ETV
attr interpolationmode  none
attr source  sentPk
attr title  "packets sent, vector(packetBytes)"
vector 164  University.whttpStudents[2].tcpApp[0]  numActiveSessions:vector  ETV
attr interpolationmode  sample-hold
attr source  sum(connect)
attr title  "number of active sessions, vector"
vector 162  University.whttpStudents[2].tcpApp[0]  sentPk:vector(packetBytes)  ETV
attr interpolationmode  none
attr source  sentPk
attr title  "packets sent, vector(packetBytes)"
vector 387  University.whttpStudents[7].wlan[0].outputHook[0]  "thruput (bit/sec)"  ETV
vector 388  University.whttpStudents[7].wlan[0].outputHook[0]  packet/sec  ETV
vector 337  University.whttpStudents[2].wlan[0].outputHook[0]  "thruput (bit/sec)"  ETV
vector 338  University.whttpStudents[2].wlan[0].outputHook[0]  packet/sec  ETV
vector 161  University.whttpStudents[2].tcpApp[0]  rcvdPk:vector(packetBytes)  ETV
attr interpolationmode  none
attr source  rcvdPk
attr title  "packets received, vector(packetBytes)"
vector 163  University.whttpStudents[2].tcpApp[0]  endToEndDelay:vector  ETV
attr interpolationmode  none
attr source  messageAge(rcvdPk)
attr title  "end-to-end delay, vector"
attr unit  s
vector 197  University.whttpStudents[5].tcpApp[0]  rcvdPk:vector(packetBytes)  ETV
attr interpolationmode  none
attr source  rcvdPk
attr title  "packets received, vector(packetBytes)"
vector 199  University.whttpStudents[5].tcpApp[0]  endToEndDelay:vector  ETV
attr interpolationmode  none
attr source  messageAge(rcvdPk)
attr title  "end-to-end delay, vector"
attr unit  s
vector 186  University.whttpStudents[4].tcpApp[0]  sentPk:vector(packetBytes)  ETV
attr interpolationmode  none
attr source  sentPk
attr title  "packets sent, vector(packetBytes)"
vector 221  University.whttpStudents[7].tcpApp[0]  rcvdPk:vector(packetBytes)  ETV
attr interpolationmode  none
attr source  rcvdPk
attr title  "packets received, vector(packetBytes)"
vector 223  University.whttpStudents[7].tcpApp[0]  endToEndDelay:vector  ETV
attr interpolationmode  none
attr source  messageAge(rcvdPk)
attr title  "end-to-end delay, vector"
attr unit  s
vector 140  University.whttpStudents[0].tcpApp[0]  numActiveSessions:vector  ETV
attr interpolationmode  sample-hold
attr source  sum(connect)
attr title  "number of active sessions, vector"
vector 138  University.whttpStudents[0].tcpApp[0]  sentPk:vector(packetBytes)  ETV
attr interpolationmode  none
attr source  sentPk
attr title  "packets sent, vector(packetBytes)"
vector 317  University.whttpStudents[0].wlan[0].outputHook[0]  "thruput (bit/sec)"  ETV
vector 318  University.whttpStudents[0].wlan[0].outputHook[0]  packet/sec  ETV
vector 137  University.whttpStudents[0].tcpApp[0]  rcvdPk:vector(packetBytes)  ETV
attr interpolationmode  none
attr source  rcvdPk
attr title  "packets received, vector(packetBytes)"
vector 139  University.whttpStudents[0].tcpApp[0]  endToEndDelay:vector  ETV
attr interpolationmode  none
attr source  messageAge(rcvdPk)
attr title  "end-to-end delay, vector"
attr unit  s
vector 277  University.remoteR.eth[1].outputHook[0]  "thruput (bit/sec)"  ETV
vector 278  University.remoteR.eth[1].outputHook[0]  packet/sec  ETV
vector 315  University.CCTV.eth[0].inputHook[0]  "thruput (bit/sec)"  ETV
vector 316  University.CCTV.eth[0].inputHook[0]  packet/sec  ETV
64	16557 2189463 481670 259241127 5.021950185468 2436.301950185468 60783 10240 10240 622417920 6373559500800
65	2206020 2735028 481670 259241127 5.021950185468 2436.301950185468 60783 0.017080129996 0.060920796374 1107.0395717513 21.004911244925
82	4941048 2123492 482113 259241815 5.027906852134 2436.307906852134 60719 1400 1400 85006600 119009240000
83	7064540 2134539 482128 259242012 5.033253113599 2436.313253113599 60783 1400 1400 85096200 119134680000
84	9199079 2726936 482113 259241815 5.027906852134 2436.307906852134 60719 0.016943393529 0.177131393527 1197.1349158705 25.646151205841
101	11926015 34569 1092396 258835028 10.051775744723 2432.306531641808 1048 1 1 1048 1048
102	11960584 39940 1092396 258835028 10.051775744723 2432.306531641808 1048 105 6028685 813781538 1.2825315806826e+15
103	12000524 48063 1092396 258835028 10.051775744723 2432.306531641808 1048 0.018340278753 0.053415953955 22.014722934031 0.48867097990865
104	12048587 20608 583393 259154050 6.247908350735 2435.4578523011 530 1048576 1048576 555745280 5.8274116272128e+14
105	12069195 17428 583393 259154050 6.247908350735 2435.4578523011 530 1 1 530 530
106	12086623 24259 583393 259154050 6.247908350735 2435.4578523011 530 1.569090512982 17.244276034401 2361.0830075913 11713.517348621
119	12110882 2256143 480366 259242072 5.004870055472 2436.324870055472 60784 10240 10240 622428160 6373664358400
137	14367025 4514 4623390 259008792 38.815497493964 2433.254224390188 118 385 3804660 95070247 1.5573932600218e+14
138	14371539 3904 4460779 257907014 37.658780056385 2424.113844787102 118 1 1 118 118
139	14375443 5433 4623390 259008792 38.815497493964 2433.254224390188 118 0.032760510994 29.881154300793 417.88084017865 3773.4024984392
140	14380876 7813 4459278 259008792 37.627709628219 2433.254224390188 236 0 1 118 118
149	14388689 5277 859727 258580497 7.865135601046 2428.216257334851 138 4222 5172371 119838976 1.9806909054442e+14
150	14393966 4533 1355139 257970736 12.330962701124 2424.398469146646 137 1 1 137 137
151	14398499 6349 859727 258580497 7.865135601046 2428.216257334851 138 0.064073375778 25.454269218614 528.56381595661 4036.8212273868
152	14404848 9233 859727 258580497 7.865135601046 2428.216257334851 275 -1 0 -138 138
161	14414081 5645 2822322 256931849 23.405545847952 2415.590728655323 148 3719 6028685 121024505 2.2810569830042e+14
162	14419726 4881 2519950 256883455 21.812683634677 2415.264895216676 148 1 1 148 148
163	14424607 6801 2822322 256931849 23.405545847952 2415.590728655323 148 0.063695964938 17.697329161579 439.00025935534 2746.7467507573
164	14431408 9776 2516459 256931849 21.780607214876 2415.590728655323 296 0 1 148 148
173	14441184 4695 1108888 258795068 10.257417445229 2431.627229386568 123 5183 4845722 98665111 1.5223965371086e+14
174	14445879 4093 1091782 258834047 10.03338146597 2432.28342179491 124 1 1 124 124
175	14449972 5648 1108888 258795068 10.257417445229 2431.627229386568 123 0.100909761501 38.703273643507 447.88884823178 4122.2143209805
176	14455620 8149 1090908 258832952 10.001610397129 2432.24745725013 247 0 1 124 124
185	14463769 4894 1086012 253701319 9.584226525451 2393.066031022482 129 105 4367330 95910723 1.550420821155e+14
186	14468663 4218 3303829 252598507 25.736093186235 2382.761341752777 128 1 1 128 128
187	14472881 5916 1086012 253701319 9.584226525451 2393.066031022482 129 0.034604943702 12.875367822278 369.90584839902 2262.164226096
188	14478797 8590 1086012 253701319 9.584226525451 2393.066031022482 257 -1 0 -129 129
197	14487387 5229 3278174 252405196 25.569861499072 2381.443708765387 137 3959 3185027 109608017 1.5584877104344e+14
198	14492616 4524 1627309 252322342 15.761648496043 2380.841373085388 137 1 1 137 137
199	14497140 6294 3278174 252405196 25.569861499072 2381.443708765387 137 0.065024951266 14.030504625604 470.65357702598 3225.0727531016
200	14503434 9035 1622539 252405196 15.724158892207 2381.443708765387 274 0 1 137 137
209	14512469 4820 2491087 258233379 21.363867882232 2426.056594119533 126 2195 4391721 99488955 1.5261557699762e+14
210	14517289 4168 1240300 257729616 11.80643438383 2423.201341743932 126 1 1 126 126
211	14521457 5807 2491087 258233379 21.363867882232 2426.056594119533 126 0.067402404452 22.556984623384 433.49493865453 3430.8248698996
212	14527264 8330 940853 258233379 8.732386982976 2426.056594119533 252 0 1 126 126
221	14535594 4925 3401539 256656029 26.212316780859 2412.624990890449 130 5293 3289292 76328933 89519308879865
222	14540519 4277 2511350 256317533 21.713587632198 2409.530708049864 130 1 1 130 130
223	14544796 5950 3401539 256656029 26.212316780859 2412.624990890449 130 0.12921316222 16.507562464716 320.67733802896 2007.161117902
224	14550746 8555 2509054 256656029 21.682553176164 2412.624990890449 260 0 1 130 130
233	14559301 2157913 480572 259240821 5.009600186545 2436.289600186545 59829 1400 1400 83760600 117264840000
234	16717214 2195322 480622 259240868 5.010963458605 2436.290963458605 60783 1400 1400 85096200 119134680000
235	18912536 2753499 480572 259240821 5.009600186545 2436.289600186545 59829 0.016319948513 1.017441585506 1690.6613055667 106.18375786474
249	21666035 17480 584513 259154700 6.260115144923 2435.470104095288 530 1 1 530 530
250	21683515 20623 587697 259157105 6.324551815207 2435.530887877852 530 1048576 1048576 555745280 5.8274116272128e+14
251	21704138 24312 584513 259154700 6.260115144923 2435.470104095288 530 1.591044761113 17.256473828589 2387.6477565891 12037.129264081
252	21728450 35491 584513 259156003 6.260115144923 2435.500677453786 1060 -1 0 -530 530
273	21763941 106736 572895 259156929 5.015919212247 2434.529209780265 2422 285600 11570288.571374 7760960684.6527 4.4509097015842e+16
274	21870677 103782 572895 259156929 5.015919212247 2434.529209780265 2422 25 978.04833830067 1033526.9623521 581978978.70696
275	21974459 110473 572686 259152831 5.011352424885 2434.411352424885 2420 285600 7343002.8684776 5510641493.0843 1.8835176380541e+16
276	22084932 108962 572686 259152831 5.011352424885 2434.411352424885 2420 25 947.89590214691 1030931.0014044 575516705.39279
277	22193894 897 26322831 254571773 120.044875865472 2280.764875865472 19 1.8660446517827 1.8660446517827 35.454848383872 66.160330206492
278	22194791 954 26322831 254571773 120.044875865472 2280.764875865472 19 0.0083305564811729 0.0083305564811729 0.15828057314229 0.0013185652544342
279	22195745 95096 572351 259229311 5.004992185472 2435.004992185472 2431 2077600 2077824 5050650080 1.049323991486e+16
280	22290841 85372 572351 259229311 5.004992185472 2435.004992185472 2431 175 176 425445 74456395
281	22376213 95096 572353 259229313 5.004992185472 2435.004992185472 2431 2363200 9519552 10585437800 5.2671615381901e+16
282	22471309 85531 572353 259229313 5.004992185472 2435.004992185472 2431 200 1121 1460075 1014664383
283	22556840 106730 572893 259156927 5.016923878913 2434.529209780265 2422 285600 11570288.571374 7760896125.3751 4.4509587445212e+16
284	22663570 103766 572893 259156927 5.016923878913 2434.529209780265 2422 25 977.04931037595 1033328.4330829 581780032.41172
285	22767336 94466 573773 259230749 5.038253113599 2435.038253113599 2431 285600 14333584 8368237696 5.3248382143382e+16
286	22861802 85179 573773 259230749 5.038253113599 2435.038253113599 2431 25 1238 1085479 652834033
287	22946981 107401 572785 259231989 5.017001518804 2435.061628720994 2428 2266792 9924082.3137204 10572860965.092 5.2345754553e+16
288	23054382 104213 572785 259231989 5.017001518804 2435.061628720994 2428 200 1111 1458417.7963619 1011277533.785
289	23158595 109613 580353 259150697 5.147145808426 2434.342906852134 2383 165526.69412804 331256.72233723 679907005.14324 1.9407740184939e+14
290	23268208 108722 580353 259150697 5.147145808426 2434.342906852134 2383 14.489381488799 28.99656182924 59515.669217721 1487094.5456108
291	23376930 92665 573771 259230747 5.038253113599 2435.038253113599 2431 285600 285600 694293600 1.9829025216e+14
292	23469595 82941 573771 259230747 5.038253113599 2435.038253113599 2431 25 25 60775 1519375
293	23552536 111730 573727 259205545 5.027780223123 2434.86771601067 2397 192.17088197136 7498761.8823211 4799709111.5659 1.601598883004e+16
294	23664266 111491 573727 259205545 5.027780223123 2434.86771601067 2397 0.60053400616051 924.85234218942 966113.8034827 523525486.85524
295	23775757 111732 578783 259160505 5.143565556972 2434.623500221361 2393 2042.6778129234 13831803.900997 7586508265.4367 4.7689482321785e+16
296	23887489 111486 578783 259160505 5.143565556972 2434.623500221361 2393 6.3833681653857 1200.7342591563 1013533.6195134 592996197.72076
297	23998975 104845 572787 259236077 5.017001518804 2435.143891387606 2423 1962781.9969075 2149272.4999368 5034120885.9307 1.0460076064441e+16
298	24103820 100781 572787 259236077 5.017001518804 2435.143891387606 2423 165.39198119135 180.97242393401 424032.94969474 74214047.987095
303	24204601 104845 572792 259236082 5.017001518804 2435.143891387606 2423 1962781.9969075 2149272.4999368 5034120885.9307 1.0460076064441e+16
304	24309446 100781 572792 259236082 5.017001518804 2435.143891387606 2423 165.39198119135 180.97242393401 424032.94969474 74214047.987095
305	24410227 92665 573334 259230704 5.033253113599 2435.033253113599 2431 285600 285600 694293600 1.9829025216e+14
306	24502892 82941 573334 259230704 5.033253113599 2435.033253113599 2431 25 25 60775 1519375
307	24585833 109613 580793 259150710 5.152145808426 2434.347906852134 2383 165526.69412804 331256.72233723 679907005.14324 1.9407740184939e+14
308	24695446 108722 580793 259150710 5.152145808426 2434.347906852134 2383 14.489381488799 28.99656182924 59515.669217721 1487094.5456108
309	24804168 111369 578770 259160472 5.141858967764 2434.621793632153 2393 2042.6778129234 21184106.594218 8119528932.0638 5.8094139664417e+16
310	24915537 111154 578770 259160472 5.141858967764 2434.621793632153 2393 6.3833681653857 1802.3357088418 1058026.8003439 677042967.72726
311	25026691 111497 573987 259207107 5.035314582453 2434.87536717 2397 192.15740359529 7440544.3568646 4799928342.5146 1.6010327353932e+16
312	25138188 111282 573987 259207107 5.035314582453 2434.87536717 2397 0.60049188623529 924.74446590048 966125.51758975 523709444.33315
313	25249470 95096 572282 259229287 5.004870055472 2435.004870055472 2431 2077600 2077824 5050650080 1.049323991486e+16
314	25344566 85372 572282 259229287 5.004870055472 2435.004870055472 2431 175 176 425445 74456395
315	25429938 897 26322838 254571780 120.044881675472 2280.764881675472 19 1.8660446517827 1.8660446517827 35.454848383872 66.160330206492
316	25430835 954 26322838 254571780 120.044881675472 2280.764881675472 19 0.0083305564811729 0.0083305564811729 0.15828057314229 0.0013185652544342
317	25431789 21510 4618189 258954230 37.627709628219 2429.137331947296 459 3.9231519017073 276635.13732552 18453327.499181 2242003019349
318	25453299 21552 4618189 258954230 37.627709628219 2429.137331947296 459 0.012259849692835 864.48480414226 57651.245827062 21883410.130151
319	25474851 26178 1091092 258954226 8.774185692616 2429.203756752244 558 4.4368605261286 10476708.351991 679386293.95663 3.0245912847648e+15
320	25501029 26337 1091092 258954226 8.774185692616 2429.203756752244 558 0.019807413063074 873.1123084971 56981.061259626 21175847.892096
327	25527366 25177 605790 258548800 5.485718095996 2427.063924066725 538 19.016857935594 259120.89123845 22073039.401103 2471617861508.4
328	25552543 25219 605790 258548800 5.485718095996 2427.063924066725 538 0.059427681048732 809.75278512017 68958.929216927 24123664.080905
329	25577762 30314 574938 258548796 5.051855526878 2427.063924066725 647 8.245977864236 9710835.313704 837616139.96873 3.4779440596117e+15
330	25608076 30463 574938 258548796 5.051855526878 2427.063924066725 647 0.036812401179625 809.75278512017 70247.897190495 24372926.852899
337	25638539 22887 2698818 256863797 21.780607214876 2409.162871321335 488 6.3280827621689 274462.84084927 22086542.259554 2863224631603.7
338	25661426 22938 2698818 256863797 21.780607214876 2409.162871321335 488 0.019775258631778 857.69637765397 69001.451620341 27947903.785576
339	25684364 28424 1091080 256883451 8.774185681192 2409.233523634208 606 5.7872992217964 10292356.531848 833082891.01024 4.0081608966418e+15
340	25712788 28562 1091080 256883451 8.774185681192 2409.233523634208 606 0.025836157240163 857.69637765397 69844.107794229 28010813.805546
347	25741350 21975 1749592 259241203 10.001610397129 2435.291127835867 468 21.844776840057 264996.16343375 18884755.871899 2105927887315.4
348	25763325 22048 1749592 259241203 10.001610397129 2435.291127835867 468 0.068264927625177 828.11301073047 58999.194791809 20554282.882516
349	25785373 27071 1091150 259241199 8.77418568085 2435.291127835867 576 4.9909206734916 9920777.2579396 718399067.72672 2.9793703324724e+15
350	25812444 27192 1091150 259241199 8.77418568085 2435.291127835867 576 0.022280895863802 828.5210703248 60260.832712459 20876234.809883
357	25839636 18640 578877 253686078 5.145135618271 2390.620580076987 399 8.4227653301787 272919.9543694 16875192.2618 2007662520673.7
358	25858276 18682 578877 253686078 5.145135618271 2390.620580076987 399 0.026321141656808 852.87485740437 52718.884019585 19595242.321184
359	25876958 23776 578873 255191090 5.145135618271 2402.815032843947 508 6.2562448675256 10223659.879176 650459035.19828 2.8726581767633e+15