file 62562841 1471641056                                        
version 2
run _8to13on-1-20160819-23:01:49-10147
attr configname _8to13on
attr datetime 20160819-23:01:49
attr experiment _8to13on
attr inifile omnetpp.ini
attr iterationvars $0=8
attr iterationvars2 "$0=8, $repetition=1"
attr measurement $0=8
attr network University
attr processid 10147
attr repetition 1
attr replication #1
attr resultdir results
attr runnumber 1
attr seedset 1

vector 82  University.profLaptop.udpApp[0]  rcvdPk:vector(packetBytes)  ETV
attr interpolationmode  none
attr source  rcvdPk
attr title  "packets received, vector(packetBytes)"
vector 84  University.profLaptop.udpApp[0]  rcvdPkLifetime:vector  ETV
attr interpolationmode  none
attr source  messageAge(rcvdPk)
attr title  "received packet lifetime, vector"
attr unit  s
vector 233  University.whostVideoConf.udpApp[0]  rcvdPk:vector(packetBytes)  ETV
attr interpolationmode  none
attr source  rcvdPk
attr title  "packets received, vector(packetBytes)"
vector 235  University.whostVideoConf.udpApp[0]  rcvdPkLifetime:vector  ETV
attr interpolationmode  none
attr source  messageAge(rcvdPk)
attr title  "received packet lifetime, vector"
attr unit  s
vector 64  University.ccTVMonitoringHost.udpApp[0]  rcvdPk:vector(packetBytes)  ETV
attr interpolationmode  none
attr source  rcvdPk
attr title  "packets received, vector(packetBytes)"
vector 65  University.ccTVMonitoringHost.udpApp[0]  endToEndDelay:vector  ETV
attr interpolationmode  none
attr source  messageAge(rcvdPk)
attr title  "end-to-end delay, vector"
attr unit  s
vector 234  University.whostVideoConf.udpApp[0]  sentPk:vector(packetBytes)  ETV
attr interpolationmode  none
attr source  sentPk
attr title  "packets sent, vector(packetBytes)"
vector 83  University.profLaptop.udpApp[0]  sentPk:vector(packetBytes)  ETV
attr interpolationmode  none
attr source  sentPk
attr title  "packets sent, vector(packetBytes)"
vector 119  University.CCTV.udpApp[0]  sentPk:vector(packetBytes)  ETV
attr interpolationmode  none
attr source  sentPk
attr title  "packets sent, vector(packetBytes)"
vector 161  University.whttpStudents[2].tcpApp[0]  rcvdPk:vector(packetBytes)  ETV
attr interpolationmode  none
attr source  rcvdPk
attr title  "packets received, vector(packetBytes)"
vector 163  University.whttpStudents[2].tcpApp[0]  endToEndDelay:vector  ETV
attr interpolationmode  none
attr source  messageAge(rcvdPk)
attr title  "end-to-end delay, vector"
attr unit  s
vector 164  University.whttpStudents[2].tcpApp[0]  numActiveSessions:vector  ETV
attr interpolationmode  sample-hold
attr source  sum(connect)
attr title  "number of active sessions, vector"
vector 140  University.whttpStudents[0].tcpApp[0]  numActiveSessions:vector  ETV
attr interpolationmode  sample-hold
attr source  sum(connect)
attr title  "number of active sessions, vector"
vector 200  University.whttpStudents[5].tcpApp[0]  numActiveSessions:vector  ETV
attr interpolationmode  sample-hold
attr source  sum(connect)
attr title  "number of active sessions, vector"
vector 138  University.whttpStudents[0].tcpApp[0]  sentPk:vector(packetBytes)  ETV
attr interpolationmode  none
attr source  sentPk
attr title  "packets sent, vector(packetBytes)"
vector 101  University.Server.tcpApp[0]  rcvdPk:vector(packetBytes)  ETV
attr interpolationmode  none
attr source  rcvdPk
attr title  "packets received, vector(packetBytes)"
vector 103  University.Server.tcpApp[0]  endToEndDelay:vector  ETV
attr interpolationmode  none
attr source  messageAge(rcvdPk)
attr title  "end-to-end delay, vector"
attr unit  s
vector 102  University.Server.tcpApp[0]  sentPk:vector(packetBytes)  ETV
attr interpolationmode  none
attr source  sentPk
attr title  "packets sent, vector(packetBytes)"
vector 291  University.mainR.ppp[1].inputHook[0]  "thruput (bit/sec)"  ETV
vector 292  University.mainR.ppp[1].inputHook[0]  packet/sec  ETV
vector 285  University.mainR.ppp[0].outputHook[0]  "thruput (bit/sec)"  ETV
vector 286  University.mainR.ppp[0].outputHook[0]  packet/sec  ETV
vector 287  University.mainR.ppp[0].inputHook[0]  "thruput (bit/sec)"  ETV
vector 288  University.mainR.ppp[0].inputHook[0]  packet/sec  ETV
vector 283  University.remoteR.ppp[0].inputHook[0]  "thruput (bit/sec)"  ETV
vector 284  University.remoteR.ppp[0].inputHook[0]  packet/sec  ETV
vector 273  University.remoteR.eth[0].outputHook[0]  "thruput (bit/sec)"  ETV
vector 274  University.remoteR.eth[0].outputHook[0]  packet/sec  ETV
vector 429  University.accessPoint.eth[0].inputHook[0]  "thruput (bit/sec)"  ETV
vector 430  University.accessPoint.eth[0].inputHook[0]  packet/sec  ETV
vector 417  University.accessPoint.wlan[0].outputHook[0]  "thruput (bit/sec)"  ETV
vector 418  University.accessPoint.wlan[0].outputHook[0]  packet/sec  ETV
vector 297  University.mainR.ppp[3].outputHook[0]  "thruput (bit/sec)"  ETV
vector 298  University.mainR.ppp[3].outputHook[0]  packet/sec  ETV
vector 303  University.ccTVMonitoringHost.ppp[0].inputHook[0]  "thruput (bit/sec)"  ETV
vector 304  University.ccTVMonitoringHost.ppp[0].inputHook[0]  packet/sec  ETV
vector 397  University.whostVideoConf.wlan[0].outputHook[0]  "thruput (bit/sec)"  ETV
vector 398  University.whostVideoConf.wlan[0].outputHook[0]  packet/sec  ETV
vector 305  University.profLaptop.ppp[0].outputHook[0]  "thruput (bit/sec)"  ETV
vector 306  University.profLaptop.ppp[0].outputHook[0]  packet/sec  ETV
vector 313  University.CCTV.eth[0].outputHook[0]  "thruput (bit/sec)"  ETV
vector 314  University.CCTV.eth[0].outputHook[0]  packet/sec  ETV
vector 279  University.remoteR.eth[1].inputHook[0]  "thruput (bit/sec)"  ETV
vector 280  University.remoteR.eth[1].inputHook[0]  packet/sec  ETV
vector 281  University.remoteR.ppp[0].outputHook[0]  "thruput (bit/sec)"  ETV
vector 282  University.remoteR.ppp[0].outputHook[0]  packet/sec  ETV
vector 399  University.whostVideoConf.wlan[0].inputHook[0]  "thruput (bit/sec)"  ETV
vector 400  University.whostVideoConf.wlan[0].inputHook[0]  packet/sec  ETV
vector 419  University.accessPoint.wlan[0].inputHook[0]  "thruput (bit/sec)"  ETV
vector 420  University.accessPoint.wlan[0].inputHook[0]  packet/sec  ETV
vector 427  University.accessPoint.eth[0].outputHook[0]  "thruput (bit/sec)"  ETV
vector 428  University.accessPoint.eth[0].outputHook[0]  packet/sec  ETV
vector 275  University.remoteR.eth[0].inputHook[0]  "thruput (bit/sec)"  ETV
vector 276  University.remoteR.eth[0].inputHook[0]  packet/sec  ETV
vector 293  University.mainR.ppp[2].outputHook[0]  "thruput (bit/sec)"  ETV
vector 294  University.mainR.ppp[2].outputHook[0]  packet/sec  ETV
vector 327  University.whttpStudents[1].wlan[0].outputHook[0]  "thruput (bit/sec)"  ETV
vector 328  University.whttpStudents[1].wlan[0].outputHook[0]  packet/sec  ETV
vector 311  University.Server.ppp[0].inputHook[0]  "thruput (bit/sec)"  ETV
vector 312  University.Server.ppp[0].inputHook[0]  packet/sec  ETV
vector 289  University.mainR.ppp[1].outputHook[0]  "thruput (bit/sec)"  ETV
vector 290  University.mainR.ppp[1].outputHook[0]  packet/sec  ETV
vector 307  University.profLaptop.ppp[0].inputHook[0]  "thruput (bit/sec)"  ETV
vector 308  University.profLaptop.ppp[0].inputHook[0]  packet/sec  ETV
vector 309  University.Server.ppp[0].outputHook[0]  "thruput (bit/sec)"  ETV
vector 310  University.Server.ppp[0].outputHook[0]  packet/sec  ETV
vector 389  University.whttpStudents[7].wlan[0].inputHook[0]  "thruput (bit/sec)"  ETV
vector 390  University.whttpStudents[7].wlan[0].inputHook[0]  packet/sec  ETV
vector 409  University.whostFTP.wlan[0].inputHook[0]  "thruput (bit/sec)"  ETV
vector 410  University.whostFTP.wlan[0].inputHook[0]  packet/sec  ETV
vector 407  University.whostFTP.wlan[0].outputHook[0]  "thruput (bit/sec)"  ETV
vector 408  University.whostFTP.wlan[0].outputHook[0]  packet/sec  ETV
vector 295  University.mainR.ppp[2].inputHook[0]  "thruput (bit/sec)"  ETV
vector 296  University.mainR.ppp[2].inputHook[0]  packet/sec  ETV
vector 329  University.whttpStudents[1].wlan[0].inputHook[0]  "thruput (bit/sec)"  ETV
vector 330  University.whttpStudents[1].wlan[0].inputHook[0]  packet/sec  ETV
vector 319  University.whttpStudents[0].wlan[0].inputHook[0]  "thruput (bit/sec)"  ETV
vector 320  University.whttpStudents[0].wlan[0].inputHook[0]  packet/sec  ETV
vector 317  University.whttpStudents[0].wlan[0].outputHook[0]  "thruput (bit/sec)"  ETV
vector 318  University.whttpStudents[0].wlan[0].outputHook[0]  packet/sec  ETV
vector 379  University.whttpStudents[6].wlan[0].inputHook[0]  "thruput (bit/sec)"  ETV
vector 380  University.whttpStudents[6].wlan[0].inputHook[0]  packet/sec  ETV
vector 377  University.whttpStudents[6].wlan[0].outputHook[0]  "thruput (bit/sec)"  ETV
vector 378  University.whttpStudents[6].wlan[0].outputHook[0]  packet/sec  ETV
vector 387  University.whttpStudents[7].wlan[0].outputHook[0]  "thruput (bit/sec)"  ETV
vector 388  University.whttpStudents[7].wlan[0].outputHook[0]  packet/sec  ETV
vector 367  University.whttpStudents[5].wlan[0].outputHook[0]  "thruput (bit/sec)"  ETV
vector 368  University.whttpStudents[5].wlan[0].outputHook[0]  packet/sec  ETV
vector 369  University.whttpStudents[5].wlan[0].inputHook[0]  "thruput (bit/sec)"  ETV
vector 370  University.whttpStudents[5].wlan[0].inputHook[0]  packet/sec  ETV
vector 198  University.whttpStudents[5].tcpApp[0]  sentPk:vector(packetBytes)  ETV
attr interpolationmode  none
attr source  sentPk
attr title  "packets sent, vector(packetBytes)"
vector 197  University.whttpStudents[5].tcpApp[0]  rcvdPk:vector(packetBytes)  ETV
attr interpolationmode  none
attr source  rcvdPk
attr title  "packets received, vector(packetBytes)"
vector 199  University.whttpStudents[5].tcpApp[0]  endToEndDelay:vector  ETV
attr interpolationmode  none
attr source  messageAge(rcvdPk)
attr title  "end-to-end delay, vector"
attr unit  s
vector 188  University.whttpStudents[4].tcpApp[0]  numActiveSessions:vector  ETV
attr interpolationmode  sample-hold
attr source  sum(connect)
attr title  "number of active sessions, vector"
vector 349  University.whttpStudents[3].wlan[0].inputHook[0]  "thruput (bit/sec)"  ETV
vector 350  University.whttpStudents[3].wlan[0].inputHook[0]  packet/sec  ETV
vector 339  University.whttpStudents[2].wlan[0].inputHook[0]  "thruput (bit/sec)"  ETV
vector 340  University.whttpStudents[2].wlan[0].inputHook[0]  packet/sec  ETV
vector 359  University.whttpStudents[4].wlan[0].inputHook[0]  "thruput (bit/sec)"  ETV
vector 360  University.whttpStudents[4].wlan[0].inputHook[0]  packet/sec  ETV
vector 186  University.whttpStudents[4].tcpApp[0]  sentPk:vector(packetBytes)  ETV
attr interpolationmode  none
attr source  sentPk
attr title  "packets sent, vector(packetBytes)"
vector 357  University.whttpStudents[4].wlan[0].outputHook[0]  "thruput (bit/sec)"  ETV
vector 358  University.whttpStudents[4].wlan[0].outputHook[0]  packet/sec  ETV
vector 149  University.whttpStudents[1].tcpApp[0]  rcvdPk:vector(packetBytes)  ETV
attr interpolationmode  none
attr source  rcvdPk
attr title  "packets received, vector(packetBytes)"
vector 151  University.whttpStudents[1].tcpApp[0]  endToEndDelay:vector  ETV
attr interpolationmode  none
attr source  messageAge(rcvdPk)
attr title  "end-to-end delay, vector"
attr unit  s
vector 152  University.whttpStudents[1].tcpApp[0]  numActiveSessions:vector  ETV
attr interpolationmode  sample-hold
attr source  sum(connect)
attr title  "number of active sessions, vector"
vector 185  University.whttpStudents[4].tcpApp[0]  rcvdPk:vector(packetBytes)  ETV
attr interpolationmode  none
attr source  rcvdPk
attr title  "packets received, vector(packetBytes)"
vector 187  University.whttpStudents[4].tcpApp[0]  endToEndDelay:vector  ETV
attr interpolationmode  none
attr source  messageAge(rcvdPk)
attr title  "end-to-end delay, vector"
attr unit  s
vector 104  University.Server.tcpApp[1]  rcvdPk:vector(packetBytes)  ETV
attr interpolationmode  none
attr source  rcvdPk
attr title  "packets received, vector(packetBytes)"
vector 106  University.Server.tcpApp[1]  endToEndDelay:vector  ETV
attr interpolationmode  none
attr source  messageAge(rcvdPk)
attr title  "end-to-end delay, vector"
attr unit  s
vector 105  University.Server.tcpApp[1]  sentPk:vector(packetBytes)  ETV
attr interpolationmode  none
attr source  sentPk
attr title  "packets sent, vector(packetBytes)"
vector 249  University.whostFTP.tcpApp[0]  rcvdPk:vector(packetBytes)  ETV
attr interpolationmode  none
attr source  rcvdPk
attr title  "packets received, vector(packetBytes)"
vector 251  University.whostFTP.tcpApp[0]  endToEndDelay:vector  ETV
attr interpolationmode  none
attr source  messageAge(rcvdPk)
attr title  "end-to-end delay, vector"
attr unit  s
vector 252  University.whostFTP.tcpApp[0]  numActiveSessions:vector  ETV
attr interpolationmode  sample-hold
attr source  sum(connect)
attr title  "number of active sessions, vector"
vector 337  University.whttpStudents[2].wlan[0].outputHook[0]  "thruput (bit/sec)"  ETV
vector 338  University.whttpStudents[2].wlan[0].outputHook[0]  packet/sec  ETV
vector 162  University.whttpStudents[2].tcpApp[0]  sentPk:vector(packetBytes)  ETV
attr interpolationmode  none
attr source  sentPk
attr title  "packets sent, vector(packetBytes)"
vector 250  University.whostFTP.tcpApp[0]  sentPk:vector(packetBytes)  ETV
attr interpolationmode  none
attr source  sentPk
attr title  "packets sent, vector(packetBytes)"
vector 176  University.whttpStudents[3].tcpApp[0]  numActiveSessions:vector  ETV
attr interpolationmode  sample-hold
attr source  sum(connect)
attr title  "number of active sessions, vector"
vector 347  University.whttpStudents[3].wlan[0].outputHook[0]  "thruput (bit/sec)"  ETV
vector 348  University.whttpStudents[3].wlan[0].outputHook[0]  packet/sec  ETV
vector 174  University.whttpStudents[3].tcpApp[0]  sentPk:vector(packetBytes)  ETV
attr interpolationmode  none
attr source  sentPk
attr title  "packets sent, vector(packetBytes)"
vector 150  University.whttpStudents[1].tcpApp[0]  sentPk:vector(packetBytes)  ETV
attr interpolationmode  none
attr source  sentPk
attr title  "packets sent, vector(packetBytes)"
vector 209  University.whttpStudents[6].tcpApp[0]  rcvdPk:vector(packetBytes)  ETV
attr interpolationmode  none
attr source  rcvdPk
attr title  "packets received, vector(packetBytes)"
vector 211  University.whttpStudents[6].tcpApp[0]  endToEndDelay:vector  ETV
attr interpolationmode  none
attr source  messageAge(rcvdPk)
attr title  "end-to-end delay, vector"
attr unit  s
vector 212  University.whttpStudents[6].tcpApp[0]  numActiveSessions:vector  ETV
attr interpolationmode  sample-hold
attr source  sum(connect)
attr title  "number of active sessions, vector"
vector 210  University.whttpStudents[6].tcpApp[0]  sentPk:vector(packetBytes)  ETV
attr interpolationmode  none
attr source  sentPk
attr title  "packets sent, vector(packetBytes)"
vector 221  University.whttpStudents[7].tcpApp[0]  rcvdPk:vector(packetBytes)  ETV
attr interpolationmode  none
attr source  rcvdPk
attr title  "packets received, vector(packetBytes)"
vector 223  University.whttpStudents[7].tcpApp[0]  endToEndDelay:vector  ETV
attr interpolationmode  none
attr source  messageAge(rcvdPk)
attr title  "end-to-end delay, vector"
attr unit  s
vector 224  University.whttpStudents[7].tcpApp[0]  numActiveSessions:vector  ETV
attr interpolationmode  sample-hold
attr source  sum(connect)
attr title  "number of active sessions, vector"
vector 137  University.whttpStudents[0].tcpApp[0]  rcvdPk:vector(packetBytes)  ETV
attr interpolationmode  none
attr source  rcvdPk
attr title  "packets received, vector(packetBytes)"
vector 139  University.whttpStudents[0].tcpApp[0]  endToEndDelay:vector  ETV
attr interpolationmode  none
attr source  messageAge(rcvdPk)
attr title  "end-to-end delay, vector"
attr unit  s
vector 222  University.whttpStudents[7].tcpApp[0]  sentPk:vector(packetBytes)  ETV
attr interpolationmode  none
attr source  sentPk
attr title  "packets sent, vector(packetBytes)"
vector 173  University.whttpStudents[3].tcpApp[0]  rcvdPk:vector(packetBytes)  ETV
attr interpolationmode  none
attr source  rcvdPk
attr title  "packets received, vector(packetBytes)"
vector 175  University.whttpStudents[3].tcpApp[0]  endToEndDelay:vector  ETV
attr interpolationmode  none
attr source  messageAge(rcvdPk)
attr title  "end-to-end delay, vector"
attr unit  s
vector 277  University.remoteR.eth[1].outputHook[0]  "thruput (bit/sec)"  ETV
vector 278  University.remoteR.eth[1].outputHook[0]  packet/sec  ETV
vector 315  University.CCTV.eth[0].inputHook[0]  "thruput (bit/sec)"  ETV
vector 316  University.CCTV.eth[0].inputHook[0]  packet/sec  ETV
64	16557 2042494 270482 150072721 5.0159338729 2396.4559338729 59787 10240 10240 612218880 6269121331200
65	2059051 2580134 270482 150072721 5.0159338729 2396.4559338729 59787 0.017080129996 0.066396569332 1036.8157368747 18.194689606646
82	4639185 2035325 270215 150072990 5.003181187988 2396.48316432858 59787 1400 1400 83701800 117182520000
83	6674510 2080728 271175 150072829 5.037302294448 2396.477302294448 59787 1400 1400 83701800 117182520000
84	8755238 2631365 270215 150072990 5.003181187988 2396.48316432858 59787 0.016345628278 0.13884421709 1019.5586775114 17.920916211048
101	11386603 22540 390923 150071991 5.693653452289 2396.393110305661 691 1 1 691 691
102	11409143 26126 390923 150071991 5.693653452289 2396.393110305661 691 2167 5849731 593441532 1.0243027067898e+15
103	11435269 31503 390923 150071991 5.693653452289 2396.393110305661 691 0.026997862186 0.056440129182 19.407224433692 0.55006969051075
104	11466772 5235 1115664 148821236 14.042683050922 2374.476227665199 135 1048576 1048576 141557760 1.4843406974976e+14
105	11472007 4425 1115664 148821236 14.042683050922 2374.476227665199 135 1 1 135 135
106	11476432 6272 1115664 148821236 14.042683050922 2374.476227665199 135 5.25837377165 60.064246601399 2261.0927531183 45444.290440372
119	11482704 2200303 271189 150072843 5.038853742904 2396.478853742904 59787 10240 10240 612218880 6269121331200
137	13683007 3437 3556468 149349406 41.805459360204 2379.828287408845 91 3607 3647549 77077187 1.2781041213495e+14
138	13686444 2958 384434 145889999 5.665644477876 2334.42550383565 91 1 1 91 91
139	13689402 4163 3556468 149349406 41.805459360204 2379.828287408845 91 0.430012200422 87.071211425677 1084.7603023789 39341.668567723
140	13693565 5926 324669 149349406 5.400191217838 2379.828287408845 182 0 1 91 91
149	13699491 3315 1014349 149242442 13.331567638523 2378.597185333102 88 10590 4608692 77123267 1.3949393475891e+14
150	13702806 2834 1455351 147839293 19.543121134571 2362.543495688509 87 1 1 87 87
151	13705640 4026 1014349 149242442 13.331567638523 2378.597185333102 88 0.857427845059 70.60969440445 1140.7355179004 40004.062407401
152	13709666 5822 1014349 150069963 13.331567638523 2396.292394755616 176 -1 0 -88 88
161	13715488 3205 289884 150045084 5.145725112676 2394.44272116441 85 8565 3612441 68675651 1.098083782221e+14
162	13718693 2778 1123438 150070917 14.551053459081 2396.366085396696 85 1 1 85 85
163	13721471 3891 289884 150045084 5.145725112676 2394.44272116441 85 0.67014202193 78.80629722451 980.0879831395 28042.30099087
164	13725362 5624 289884 150067932 5.145725112676 2396.153481506626 170 -1 0 -85 85
173	13730986 3281 5399213 147163606 73.423296353978 2354.715428932214 86 9011 3680526 81642786 1.5374100494838e+14
174	13734267 2857 1373093 147270291 17.83259807256 2355.721909316264 87 1 1 87 87
175	13737124 3957 5399213 147163606 73.423296353978 2354.715428932214 86 0.650201805359 55.590698281418 1047.1520127318 30913.84087277
176	13741081 5684 1299311 147250748 16.618400187684 2355.509305456848 173 0 1 87 87
185	13746765 3456 1113706 149627247 14.009505547929 2386.028680420759 92 2167 5015841 71584181 1.098908153538e+14
186	13750221 2988 929790 149487201 11.823558507535 2383.864262400007 92 1 1 92 92
187	13753209 4197 1113706 149627247 14.009505547929 2386.028680420759 92 0.428319567077 83.349841243743 1032.8059645001 32567.544796396
188	13757406 5968 924521 149627247 11.609396554135 2386.028680420759 184 0 1 92 92
197	13763374 3138 896717 149895879 10.15478188626 2390.761438960078 83 8713 5849731 70672342 1.4659725275349e+14
198	13766512 2713 780664 149677552 8.859261807008 2388.619648808025 83 1 1 83 83
199	13769225 3810 896717 149895879 10.15478188626 2390.761438960078 83 0.649959737703 85.641710442246 959.80860570663 33050.600168383
200	13773035 5418 377587 149895879 5.637287889868 2390.761438960078 166 0 1 83 83
209	13778453 3075 1715139 147211433 21.059934922652 2355.102424924764 81 27580 4078813 76946122 1.367808010615e+14
210	13781528 2613 2235694 147076565 25.286239202663 2353.314648090376 80 1 1 80 80
211	13784141 3731 1715139 147211433 21.059934922652 2355.102424924764 81 1.075070917604 86.198258010576 1129.6518082188 43142.051434162
212	13787872 5348 1715139 147211433 21.059934922652 2355.102424924764 161 -1 0 -81 81
221	13793220 3305 3053695 149763048 33.780977007922 2389.269893145948 87 9161 3415079 72306836 1.0488553586716e+14
222	13796525 2810 3598409 149648448 42.547794473187 2387.42809459554 86 1 1 86 86
223	13799335 4005 3053695 149763048 33.780977007922 2389.269893145948 87 0.649599511925 84.983410001369 1086.3506570176 35497.697447192
224	13803340 5753 3053695 149763048 33.780977007922 2389.269893145948 173 -1 0 -87 87
233	13809093 2134287 270372 150073091 5.013649362726 2396.493649362726 59652 1400 1400 83512800 116917920000
234	15943380 2140514 271047 150072722 5.026818700302 2396.466818700302 59787 1400 1400 83701800 117182520000
235	18083894 2729374 270372 150072639 5.013649362726 2396.453649362726 59651 0.016320059338 0.183247538073 1422.812093086 72.435126324623
249	20813268 4423 1118613 148832721 14.230026924454 2374.662922398847 135 1 1 135 135
250	20817691 5230 1125386 148860108 14.661699021478 2375.089961241713 135 1048576 1048576 141557760 1.4843406974976e+14
251	20822921 6280 1118613 148832721 14.230026924454 2374.662922398847 135 5.445059505298 60.392886739486 2293.7224403992 46473.785187152
252	20829201 8984 1118613 148846334 14.230026924454 2374.876605295109 270 -1 0 -135 135
273	20838185 98059 461254 150073040 5.013258961114 2395.493258961114 2380 286880 11123100.621441 5717636773.8458 2.6692702069458e+16
274	20936244 92030 461254 150073040 5.013258961114 2395.493258961114 2380 29 957 580181.1991626 247500605.95675
275	21028274 100344 462756 150059736 5.063246819844 2394.507207661914 2375 286087.05801815 6693825.2036654 2002252370.8187 4.7296044076545e+15
276	21128618 95978 462756 150059736 5.063246819844 2394.507207661914 2375 29 904.71140957522 578104.38716328 241743992.34359
277	21224596 844 15543361 143055272 120.038859552904 2160.718859552904 18 1.8660446517827 1.8660446517827 33.588803732089 62.678207564045
278	21225440 898 15543361 143055272 120.038859552904 2160.718859552904 18 0.0083305564811729 0.0083305564811729 0.14995001666111 0.0012491670831482
279	21226338 92793 462208 150066708 5.038975872904 2395.039098912903 2391 2077600 2089367.2027084 4967557599.0587 1.0320631046859e+16
280	21319131 83237 462208 150066708 5.038975872904 2395.039098912903 2391 175 176 418444.97834717 73231387.378592
281	21402368 92793 462210 150066710 5.038975872904 2395.039098912903 2391 2367040 8927528 6982922881.1881 2.3458121315015e+16
282	21495161 83249 462210 150066710 5.038975872904 2395.039098912903 2391 204 1090 1001043.9601398 523604642.11331
283	21578410 98062 461252 150073038 5.013258961114 2395.493258961114 2380 286880 11123100.621441 5717594011.38 2.6692518795905e+16
284	21676472 92034 461252 150073038 5.013258961114 2395.493258961114 2380 29 957 579992.01143595 247395036.49051
285	21768506 91869 458999 150066358 5.002302294448 2395.002302294448 2391 286880 13924720 6086716376 3.3050706899906e+16
286	21860375 82374 458999 150066358 5.002302294448 2395.002302294448 2391 29 1166 611183 293904845
287	21942749 95269 460966 150068605 5.011989872902 2395.171989872902 2390 2321582.8972258 9089600 6980003403.669 2.3509636706503e+16
288	22038018 87676 460966 150068605 5.011989872902 2395.171989872902 2390 204 1074 1000545.4250836 523849361.89197
289	22125694 97183 469839 150064086 5.118562198586 2394.83816432858 2368 253280.69970132 318561.08558286 676286238.10893 1.9314958276203e+14
290	22222877 91987 469839 150064086 5.118562198586 2394.83816432858 2368 22.170929595704 27.885249088135 59198.725324661 1479985.2444197
291	22314864 90386 458997 150066356 5.002302294448 2395.002302294448 2391 285600 285600 682869600 1.9502755776e+14
292	22405250 80822 458997 150066356 5.002302294448 2395.002302294448 2391 25 25 59775 1494375
293	22486072 105649 466250 150065773 5.138061049575 2394.885108955985 2270 4753.9522335062 6508225.1130725 1289880991.4252 3.6530852051795e+15
294	22591721 105595 466250 150065773 5.138061049575 2394.885108955985 2270 4.6424410080058 877.49588826991 503973.97074139 210260818.84745
295	22697316 105084 476269 150070745 5.350045794524 2395.291931402691 2258 1485.5811225618 13776384 5148273032.5775 2.7755474014242e+16
296	22802400 105072 476269 150070745 5.350045794524 2395.291931402691 2258 4.6424410080058 1181.2008930001 526374.57732909 248747420.23595
297	22907472 94300 461734 150069484 5.0159338729 2395.24998053957 2389 1989189.0649916 2148261.874332 4963363997.0491 1.0312090882515e+16
298	23001772 86410 461734 150069484 5.0159338729 2395.24998053957 2389 167.59525527866 180.88732752795 418073.12986027 73164232.188625
303	23088182 94300 461739 150069489 5.0159338729 2395.24998053957 2389 1989189.0649916 2148261.874332 4963363997.0491 1.0312090882515e+16
304	23182482 86410 461739 150069489 5.0159338729 2395.24998053957 2389 167.59525527866 180.88732752795 418073.12986027 73164232.188625
305	23268892 90386 462152 150066661 5.037302294448 2395.037302294448 2391 285600 285600 682869600 1.9502755776e+14
306	23359278 80822 462152 150066661 5.037302294448 2395.037302294448 2391 25 25 59775 1494375
307	23440100 97184 470995 150064186 5.123562198586 2394.84316432858 2368 253280.69970132 318561.08558286 676286238.10893 1.9314958276203e+14
308	23537284 91988 470995 150064186 5.123562198586 2394.84316432858 2368 22.170929595704 27.885249088135 59198.725324661 1479985.2444197
309	23629272 105000 472026 150071994 5.173860288695 2395.329957302944 2258 1485.5811225618 20152421.145508 5462783896.6716 3.2095066875599e+16
310	23734272 104985 472026 150071994 5.173860288695 2395.329957302944 2258 4.6424410080058 1682.7726125017 552640.33579011 280901521.94034
311	23839257 105529 469652 150065935 5.15425298437 2394.90130089078 2269 4753.9522335062 6507845.8101283 1289219607.7245 3.655665316129e+15
312	23944786 105471 469652 150065935 5.15425298437 2394.90130089078 2269 4.6424410080058 878.57035947837 503730.91538585 210183542.75275
313	24050257 92777 462184 150066675 5.038853742904 2395.038853742904 2391 2077600 2077824 4967545856 1.0320582113645e+16
314	24143034 83213 462184 150066675 5.038853742904 2395.038853742904 2391 175 176 418444 73231044
315	24226247 844 15543368 143055279 120.038865362904 2160.718865362904 18 1.8660446517827 1.8660446517827 33.588803732089 62.678207564045
316	24227091 898 15543368 143055279 120.038865362904 2160.718865362904 18 0.0083305564811729 0.0083305564811729 0.14995001666111 0.0012491670831482
317	24227989 45865 481393 149293534 5.400191217838 2378.222857076336 983 7.5444661223295 229936.56572643 15130255.426275 1355586862686.3
318	24273854 45933 481393 149293534 5.400191217838 2378.222857076336 983 0.02357645663228 718.55176789508 47268.678135911 13238087.843027
319	24319787 48681 481389 149677413 5.406337998712 2386.674609504502 1044 6.0925408999339 8652058.61298 575455210.1959 2.0005958746058e+15
320	24368468 48893 481389 149677413 5.406337998712 2386.674609504502 1044 0.027198843303276 721.49120812869 48322.813766247 13922934.529135
327	24417361 50076 467608 150069966 5.148267251354 2378.814471516702 1077 6.2180950524109 227134.00172786 15365657.387272 1366455733458.7
328	24467437 50084 467608 150069966 5.148267251354 2378.814471516702 1077 0.019431547038784 709.79375539955 48004.584784994 13344202.95476
329	24517521 52606 476817 149677407 5.362595513552 2386.674609503726 1129 8.3315807470515 8172890.2962914 568257545.57864 1.8931433727029e+15
330	24570127 52591 476817 149677407 5.362595513552 2386.674609503726 1129 0.03719455690648 681.07419135761 47717.388544269 13179415.920943
337	24622718 42673 1120114 150067935 5.360537022028 2394.259872271579 916 7.613889963012 262885.79554493 13423449.861759 1118783909015.9
338	24665391 42752 1120114 150067935 5.360537022028 2394.259872271579 916 0.023793406134412 821.51811107792 41935.543164638 10925387.687645
339	24708143 45204 924694 150070913 5.360152965914 2394.397595057348 970 7.6925116093862 9858217.332935 504893197.84343 1.6023734086711e+15
340	24753347 45380 924694 150070913 5.360152965914 2394.397595057348 970 0.027396386303002 821.51811107792 42407.753723978 11153371.338297
347	24798727 49117 1367886 150071442 16.618400187684 2395.303344212086 1057 4.7827272454713 231565.16758413 16576776.039076 1585587115694.6
348	24847844 49190 1367886 150071442 16.618400187684 2395.303344212086 1057 0.014946022642098 723.6411487004 51789.857844647 15484125.191385
349	24897034 50987 924676 150065276 5.406244969878 2394.874687799922 1096 4.4913686789314 7742247.8220245 614689856.73562 2.1825778346913e+15
350	24948021 51097 924676 150065276 5.406244969878 2394.874687799922 1096 0.020050753030944 645.18731850205 51600.675552115 15191014.520092
357	24999118 46080 971253 149576489 11.609396554135 2384.725589420739 988 10.585468649788 228621.80319456 13688278.867942 1194477256021.3
358	25045198 46115 971253 149576489 11.609396554135 2384.725589420739 988 0.033079589530586 714.44313498299 42761.988924327 11664689.764784
359	25091313 48099 924760 149677395 5.406244987009 2385.940251912404 1031 3.8772409728123 8357678.2945449 519743229.25285 1.7684868962299e+15