file 44987531 1471641346                                        
version 2
run _14to17on-0-20160819-23:09:37-12912
attr configname _14to17on
attr datetime 20160819-23:09:37
attr experiment _14to17on
attr inifile omnetpp.ini
attr iterationvars $0=14
attr iterationvars2 "$0=14, $repetition=0"
attr measurement $0=14
attr network University
attr processid 12912
attr repetition 0
attr replication #0
attr resultdir results
attr runnumber 0
attr seedset 0

vector 306  University.whostVideoConf.udpApp[0]  sentPk:vector(packetBytes)  ETV
attr interpolationmode  none
attr source  sentPk
attr title  "packets sent, vector(packetBytes)"
vector 64  University.ccTVMonitoringHost.udpApp[0]  rcvdPk:vector(packetBytes)  ETV
attr interpolationmode  none
attr source  rcvdPk
attr title  "packets received, vector(packetBytes)"
vector 65  University.ccTVMonitoringHost.udpApp[0]  endToEndDelay:vector  ETV
attr interpolationmode  none
attr source  messageAge(rcvdPk)
attr title  "end-to-end delay, vector"
attr unit  s
vector 82  University.profLaptop.udpApp[0]  rcvdPk:vector(packetBytes)  ETV
attr interpolationmode  none
attr source  rcvdPk
attr title  "packets received, vector(packetBytes)"
vector 84  University.profLaptop.udpApp[0]  rcvdPkLifetime:vector  ETV
attr interpolationmode  none
attr source  messageAge(rcvdPk)
attr title  "received packet lifetime, vector"
attr unit  s
vector 83  University.profLaptop.udpApp[0]  sentPk:vector(packetBytes)  ETV
attr interpolationmode  none
attr source  sentPk
attr title  "packets sent, vector(packetBytes)"
vector 119  University.CCTV.udpApp[0]  sentPk:vector(packetBytes)  ETV
attr interpolationmode  none
attr source  sentPk
attr title  "packets sent, vector(packetBytes)"
vector 379  University.profLaptop.ppp[0].inputHook[0]  "thruput (bit/sec)"  ETV
vector 380  University.profLaptop.ppp[0].inputHook[0]  packet/sec  ETV
vector 529  University.whostVideoConf.wlan[0].outputHook[0]  "thruput (bit/sec)"  ETV
vector 530  University.whostVideoConf.wlan[0].outputHook[0]  packet/sec  ETV
vector 551  University.accessPoint.wlan[0].inputHook[0]  "thruput (bit/sec)"  ETV
vector 552  University.accessPoint.wlan[0].inputHook[0]  packet/sec  ETV
vector 559  University.accessPoint.eth[0].outputHook[0]  "thruput (bit/sec)"  ETV
vector 560  University.accessPoint.eth[0].outputHook[0]  packet/sec  ETV
vector 347  University.remoteR.eth[0].inputHook[0]  "thruput (bit/sec)"  ETV
vector 348  University.remoteR.eth[0].inputHook[0]  packet/sec  ETV
vector 353  University.remoteR.ppp[0].outputHook[0]  "thruput (bit/sec)"  ETV
vector 354  University.remoteR.ppp[0].outputHook[0]  packet/sec  ETV
vector 359  University.mainR.ppp[0].inputHook[0]  "thruput (bit/sec)"  ETV
vector 360  University.mainR.ppp[0].inputHook[0]  packet/sec  ETV
vector 369  University.mainR.ppp[3].outputHook[0]  "thruput (bit/sec)"  ETV
vector 370  University.mainR.ppp[3].outputHook[0]  packet/sec  ETV
vector 375  University.ccTVMonitoringHost.ppp[0].inputHook[0]  "thruput (bit/sec)"  ETV
vector 376  University.ccTVMonitoringHost.ppp[0].inputHook[0]  packet/sec  ETV
vector 377  University.profLaptop.ppp[0].outputHook[0]  "thruput (bit/sec)"  ETV
vector 378  University.profLaptop.ppp[0].outputHook[0]  packet/sec  ETV
vector 385  University.CCTV.eth[0].outputHook[0]  "thruput (bit/sec)"  ETV
vector 386  University.CCTV.eth[0].outputHook[0]  packet/sec  ETV
vector 351  University.remoteR.eth[1].inputHook[0]  "thruput (bit/sec)"  ETV
vector 352  University.remoteR.eth[1].inputHook[0]  packet/sec  ETV
vector 363  University.mainR.ppp[1].inputHook[0]  "thruput (bit/sec)"  ETV
vector 364  University.mainR.ppp[1].inputHook[0]  packet/sec  ETV
vector 361  University.mainR.ppp[1].outputHook[0]  "thruput (bit/sec)"  ETV
vector 362  University.mainR.ppp[1].outputHook[0]  packet/sec  ETV
vector 248  University.whttpStudents[9].tcpApp[0]  numActiveSessions:vector  ETV
attr interpolationmode  sample-hold
attr source  sum(connect)
attr title  "number of active sessions, vector"
vector 188  University.whttpStudents[4].tcpApp[0]  numActiveSessions:vector  ETV
attr interpolationmode  sample-hold
attr source  sum(connect)
attr title  "number of active sessions, vector"
vector 164  University.whttpStudents[2].tcpApp[0]  numActiveSessions:vector  ETV
attr interpolationmode  sample-hold
attr source  sum(connect)
attr title  "number of active sessions, vector"
vector 345  University.remoteR.eth[0].outputHook[0]  "thruput (bit/sec)"  ETV
vector 346  University.remoteR.eth[0].outputHook[0]  packet/sec  ETV
vector 561  University.accessPoint.eth[0].inputHook[0]  "thruput (bit/sec)"  ETV
vector 562  University.accessPoint.eth[0].inputHook[0]  packet/sec  ETV
vector 549  University.accessPoint.wlan[0].outputHook[0]  "thruput (bit/sec)"  ETV
vector 550  University.accessPoint.wlan[0].outputHook[0]  packet/sec  ETV
vector 451  University.whttpStudents[6].wlan[0].inputHook[0]  "thruput (bit/sec)"  ETV
vector 452  University.whttpStudents[6].wlan[0].inputHook[0]  packet/sec  ETV
vector 541  University.whostFTP.wlan[0].inputHook[0]  "thruput (bit/sec)"  ETV
vector 542  University.whostFTP.wlan[0].inputHook[0]  packet/sec  ETV
vector 441  University.whttpStudents[5].wlan[0].inputHook[0]  "thruput (bit/sec)"  ETV
vector 442  University.whttpStudents[5].wlan[0].inputHook[0]  packet/sec  ETV
vector 521  University.whttpStudents[13].wlan[0].inputHook[0]  "thruput (bit/sec)"  ETV
vector 522  University.whttpStudents[13].wlan[0].inputHook[0]  packet/sec  ETV
vector 531  University.whostVideoConf.wlan[0].inputHook[0]  "thruput (bit/sec)"  ETV
vector 532  University.whostVideoConf.wlan[0].inputHook[0]  packet/sec  ETV
vector 401  University.whttpStudents[1].wlan[0].inputHook[0]  "thruput (bit/sec)"  ETV
vector 402  University.whttpStudents[1].wlan[0].inputHook[0]  packet/sec  ETV
vector 391  University.whttpStudents[0].wlan[0].inputHook[0]  "thruput (bit/sec)"  ETV
vector 392  University.whttpStudents[0].wlan[0].inputHook[0]  packet/sec  ETV
vector 461  University.whttpStudents[7].wlan[0].inputHook[0]  "thruput (bit/sec)"  ETV
vector 462  University.whttpStudents[7].wlan[0].inputHook[0]  packet/sec  ETV
vector 421  University.whttpStudents[3].wlan[0].inputHook[0]  "thruput (bit/sec)"  ETV
vector 422  University.whttpStudents[3].wlan[0].inputHook[0]  packet/sec  ETV
vector 471  University.whttpStudents[8].wlan[0].inputHook[0]  "thruput (bit/sec)"  ETV
vector 472  University.whttpStudents[8].wlan[0].inputHook[0]  packet/sec  ETV
vector 511  University.whttpStudents[12].wlan[0].inputHook[0]  "thruput (bit/sec)"  ETV
vector 512  University.whttpStudents[12].wlan[0].inputHook[0]  packet/sec  ETV
vector 481  University.whttpStudents[9].wlan[0].inputHook[0]  "thruput (bit/sec)"  ETV
vector 482  University.whttpStudents[9].wlan[0].inputHook[0]  packet/sec  ETV
vector 501  University.whttpStudents[11].wlan[0].inputHook[0]  "thruput (bit/sec)"  ETV
vector 502  University.whttpStudents[11].wlan[0].inputHook[0]  packet/sec  ETV
vector 431  University.whttpStudents[4].wlan[0].inputHook[0]  "thruput (bit/sec)"  ETV
vector 432  University.whttpStudents[4].wlan[0].inputHook[0]  packet/sec  ETV
vector 491  University.whttpStudents[10].wlan[0].inputHook[0]  "thruput (bit/sec)"  ETV
vector 492  University.whttpStudents[10].wlan[0].inputHook[0]  packet/sec  ETV
vector 411  University.whttpStudents[2].wlan[0].inputHook[0]  "thruput (bit/sec)"  ETV
vector 412  University.whttpStudents[2].wlan[0].inputHook[0]  packet/sec  ETV
vector 365  University.mainR.ppp[2].outputHook[0]  "thruput (bit/sec)"  ETV
vector 366  University.mainR.ppp[2].outputHook[0]  packet/sec  ETV
vector 383  University.Server.ppp[0].inputHook[0]  "thruput (bit/sec)"  ETV
vector 384  University.Server.ppp[0].inputHook[0]  packet/sec  ETV
vector 381  University.Server.ppp[0].outputHook[0]  "thruput (bit/sec)"  ETV
vector 382  University.Server.ppp[0].outputHook[0]  packet/sec  ETV
vector 367  University.mainR.ppp[2].inputHook[0]  "thruput (bit/sec)"  ETV
vector 368  University.mainR.ppp[2].inputHook[0]  packet/sec  ETV
vector 479  University.whttpStudents[9].wlan[0].outputHook[0]  "thruput (bit/sec)"  ETV
vector 480  University.whttpStudents[9].wlan[0].outputHook[0]  packet/sec  ETV
vector 429  University.whttpStudents[4].wlan[0].outputHook[0]  "thruput (bit/sec)"  ETV
vector 430  University.whttpStudents[4].wlan[0].outputHook[0]  packet/sec  ETV
vector 296  University.whttpStudents[13].tcpApp[0]  numActiveSessions:vector  ETV
attr interpolationmode  sample-hold
attr source  sum(connect)
attr title  "number of active sessions, vector"
vector 409  University.whttpStudents[2].wlan[0].outputHook[0]  "thruput (bit/sec)"  ETV
vector 410  University.whttpStudents[2].wlan[0].outputHook[0]  packet/sec  ETV
vector 140  University.whttpStudents[0].tcpApp[0]  numActiveSessions:vector  ETV
attr interpolationmode  sample-hold
attr source  sum(connect)
attr title  "number of active sessions, vector"
vector 138  University.whttpStudents[0].tcpApp[0]  sentPk:vector(packetBytes)  ETV
attr interpolationmode  none
attr source  sentPk
attr title  "packets sent, vector(packetBytes)"
vector 101  University.Server.tcpApp[0]  rcvdPk:vector(packetBytes)  ETV
attr interpolationmode  none
attr source  rcvdPk
attr title  "packets received, vector(packetBytes)"
vector 103  University.Server.tcpApp[0]  endToEndDelay:vector  ETV
attr interpolationmode  none
attr source  messageAge(rcvdPk)
attr title  "end-to-end delay, vector"
attr unit  s
vector 102  University.Server.tcpApp[0]  sentPk:vector(packetBytes)  ETV
attr interpolationmode  none
attr source  sentPk
attr title  "packets sent, vector(packetBytes)"
vector 212  University.whttpStudents[6].tcpApp[0]  numActiveSessions:vector  ETV
attr interpolationmode  sample-hold
attr source  sum(connect)
attr title  "number of active sessions, vector"
vector 389  University.whttpStudents[0].wlan[0].outputHook[0]  "thruput (bit/sec)"  ETV
vector 390  University.whttpStudents[0].wlan[0].outputHook[0]  packet/sec  ETV
vector 355  University.remoteR.ppp[0].inputHook[0]  "thruput (bit/sec)"  ETV
vector 356  University.remoteR.ppp[0].inputHook[0]  packet/sec  ETV
vector 357  University.mainR.ppp[0].outputHook[0]  "thruput (bit/sec)"  ETV
vector 358  University.mainR.ppp[0].outputHook[0]  packet/sec  ETV
vector 519  University.whttpStudents[13].wlan[0].outputHook[0]  "thruput (bit/sec)"  ETV
vector 520  University.whttpStudents[13].wlan[0].outputHook[0]  packet/sec  ETV
vector 152  University.whttpStudents[1].tcpApp[0]  numActiveSessions:vector  ETV
attr interpolationmode  sample-hold
attr source  sum(connect)
attr title  "number of active sessions, vector"
vector 449  University.whttpStudents[6].wlan[0].outputHook[0]  "thruput (bit/sec)"  ETV
vector 450  University.whttpStudents[6].wlan[0].outputHook[0]  packet/sec  ETV
vector 399  University.whttpStudents[1].wlan[0].outputHook[0]  "thruput (bit/sec)"  ETV
vector 400  University.whttpStudents[1].wlan[0].outputHook[0]  packet/sec  ETV
vector 539  University.whostFTP.wlan[0].outputHook[0]  "thruput (bit/sec)"  ETV
vector 540  University.whostFTP.wlan[0].outputHook[0]  packet/sec  ETV
vector 419  University.whttpStudents[3].wlan[0].outputHook[0]  "thruput (bit/sec)"  ETV
vector 420  University.whttpStudents[3].wlan[0].outputHook[0]  packet/sec  ETV
vector 469  University.whttpStudents[8].wlan[0].outputHook[0]  "thruput (bit/sec)"  ETV
vector 470  University.whttpStudents[8].wlan[0].outputHook[0]  packet/sec  ETV
vector 260  University.whttpStudents[10].tcpApp[0]  numActiveSessions:vector  ETV
attr interpolationmode  sample-hold
attr source  sum(connect)
attr title  "number of active sessions, vector"
vector 284  University.whttpStudents[12].tcpApp[0]  numActiveSessions:vector  ETV
attr interpolationmode  sample-hold
attr source  sum(connect)
attr title  "number of active sessions, vector"
vector 200  University.whttpStudents[5].tcpApp[0]  numActiveSessions:vector  ETV
attr interpolationmode  sample-hold
attr source  sum(connect)
attr title  "number of active sessions, vector"
vector 489  University.whttpStudents[10].wlan[0].outputHook[0]  "thruput (bit/sec)"  ETV
vector 490  University.whttpStudents[10].wlan[0].outputHook[0]  packet/sec  ETV
vector 137  University.whttpStudents[0].tcpApp[0]  rcvdPk:vector(packetBytes)  ETV
attr interpolationmode  none
attr source  rcvdPk
attr title  "packets received, vector(packetBytes)"
vector 139  University.whttpStudents[0].tcpApp[0]  endToEndDelay:vector  ETV
attr interpolationmode  none
attr source  messageAge(rcvdPk)
attr title  "end-to-end delay, vector"
attr unit  s
vector 509  University.whttpStudents[12].wlan[0].outputHook[0]  "thruput (bit/sec)"  ETV
vector 510  University.whttpStudents[12].wlan[0].outputHook[0]  packet/sec  ETV
vector 224  University.whttpStudents[7].tcpApp[0]  numActiveSessions:vector  ETV
attr interpolationmode  sample-hold
attr source  sum(connect)
attr title  "number of active sessions, vector"
vector 439  University.whttpStudents[5].wlan[0].outputHook[0]  "thruput (bit/sec)"  ETV
vector 440  University.whttpStudents[5].wlan[0].outputHook[0]  packet/sec  ETV
vector 459  University.whttpStudents[7].wlan[0].outputHook[0]  "thruput (bit/sec)"  ETV
vector 460  University.whttpStudents[7].wlan[0].outputHook[0]  packet/sec  ETV
vector 272  University.whttpStudents[11].tcpApp[0]  numActiveSessions:vector  ETV
attr interpolationmode  sample-hold
attr source  sum(connect)
attr title  "number of active sessions, vector"
vector 499  University.whttpStudents[11].wlan[0].outputHook[0]  "thruput (bit/sec)"  ETV
vector 500  University.whttpStudents[11].wlan[0].outputHook[0]  packet/sec  ETV
vector 324  University.whostFTP.tcpApp[0]  numActiveSessions:vector  ETV
attr interpolationmode  sample-hold
attr source  sum(connect)
attr title  "number of active sessions, vector"
vector 236  University.whttpStudents[8].tcpApp[0]  numActiveSessions:vector  ETV
attr interpolationmode  sample-hold
attr source  sum(connect)
attr title  "number of active sessions, vector"
vector 176  University.whttpStudents[3].tcpApp[0]  numActiveSessions:vector  ETV
attr interpolationmode  sample-hold
attr source  sum(connect)
attr title  "number of active sessions, vector"
vector 349  University.remoteR.eth[1].outputHook[0]  "thruput (bit/sec)"  ETV
vector 350  University.remoteR.eth[1].outputHook[0]  packet/sec  ETV
vector 387  University.CCTV.eth[0].inputHook[0]  "thruput (bit/sec)"  ETV
vector 388  University.CCTV.eth[0].inputHook[0]  packet/sec  ETV
64	14410 2859194 67508 59780788 5.015728467927 3226.935728467927 80549 10240 10240 824821760 8446174822400
65	2873604 3584132 67508 59780788 5.015728467927 3226.935728467927 80549 0.017080129996 0.017555636679 1375.8194311471 23.499723341359
82	6457736 2779269 67520 59780800 5.021685134593 3226.941685134593 80549 1400 1400 112768600 157876040000
83	9237005 2779437 67521 59780801 5.033770629763 3226.953770629763 80549 1400 1400 112768600 157876040000
84	12016442 3584586 67520 59780800 5.021685134593 3226.941685134593 80549 0.016954157643 0.108135789623 1369.0426210719 23.314495392237
101	15601028 5034 137973 59663924 11.919671876395 3225.95140560256 156 1 1 156 156
102	15606062 5843 137973 59663924 11.919671876395 3225.95140560256 156 12650 3730848 120460794 1.7421701786892e+14
103	15611905 7057 137973 59663924 11.919671876395 3225.95140560256 156 0.034685959667 0.040666136208 5.502043055628 0.1943344841961
119	15618962 2940536 67528 59780808 5.038648337931 3226.958648337931 80549 10240 10240 824821760 8446174822400
137	18559498 5873 878380 59776906 25.879727140032 3226.714237216858 156 12650 3730848 120460794 1.7421701786892e+14
138	18565371 5068 137129 59663157 11.880687159226 3225.916719642893 156 1 1 156 156
139	18570439 7117 878380 59776906 25.879727140032 3226.714237216858 156 0.294695034307 18.539912199267 845.65688253268 9510.3895569968
140	18577556 10127 135867 59776906 11.808017099728 3226.714237216858 312 0 1 156 156
152	18587683 1158 403443 58979968 14.6550963959 3185.294734129741 35 1 35 630 14910
164	18588841 1222 103081 59567718 8.632787953244 3216.217272208895 37 1 37 703 17575
176	18590063 1164 1684179 58539805 79.17786511623 3167.954255907455 35 1 35 630 14910
188	18591227 1192 89438 59560996 7.254031574226 3215.589002117578 36 1 36 666 16206
200	18592419 1189 627504 59062659 25.083168004874 3191.052704889687 36 1 36 666 16206
212	18593608 1185 223579 59020851 12.591492793503 3188.162184025364 36 1 36 666 16206
224	18594793 1193 891722 59600397 27.125538964124 3219.557794968807 36 1 36 666 16206
236	18595986 1159 1673301 59521840 78.062290582838 3212.680820770355 35 1 35 630 14910
248	18597145 1194 85324 58673038 6.888722058828 3175.163058444857 36 1 36 666 16206
260	18598339 1191 552461 58517176 22.58676387956 3165.64448044974 36 1 36 666 16206
272	18599530 1161 997911 59458093 30.613383238675 3208.219254603715 35 1 35 630 14910
284	18600691 1224 581148 59480747 24.078593355922 3209.79980522964 37 1 37 703 17575
296	18601915 1193 127588 58633737 11.024466317847 3171.135892164194 36 1 36 666 16206
306	18603108 2779470 67207 59780912 5.00473097695 3226.96473097695 80550 1400 1400 112770000 157878000000
324	21382578 874 1643417 59653786 75 3225 43 1 43 946 27434
345	21383452 50069 103167 59663099 6.888793902327 3219.557866808086 1083 7.9862212079679 10793329.814519 829048625.42654 3.5352196930804e+15
346	21433521 50309 103167 59663099 6.888793902327 3219.557866808086 1083 0.035652773249856 900.1341541575 69586.975603822 24748086.487636
347	21483830 122397 76852 59664147 5.005119929145 3224.965119929145 3218 282323.32710555 586283.18353158 946680545.74481 2.8105917453768e+14
348	21606227 110378 76852 59664147 5.005119929145 3224.965119929145 3218 25 930.35760722548 166318.98059238 33322065.780964
349	21716605 1165 5104606 57791611 120.038654147931 3000.998654147931 25 1.8660446517827 1.8660446517827 46.651116294568 87.053066061174
350	21717770 1240 5104606 57791611 120.038654147931 3000.998654147931 25 0.0083305564811729 0.0083305564811729 0.20826391202932 0.0017349542821503
351	21719010 121060 77100 59665265 5.038770467931 3225.039016547929 3221 2077600 2089367.2027084 6691978910.1173 1.3903316556578e+16
352	21840070 108192 77100 59665265 5.038770467931 3225.039016547929 3221 175 176 563702.95669434 98652937.757184
353	21948262 121075 76854 59665267 5.005119929145 3225.039016547929 3221 2363200 2649664 7639547592.4612 1.812206933394e+16
354	22069337 108217 76854 59665267 5.005119929145 3225.039016547929 3221 200 1095 730288.64469508 191394235.89866
355	22177554 41345 316707 59663097 11.880611164382 3214.077721834716 894 26.113438808179 10793329.814519 800678909.88968 3.5499504897367e+15
356	22218899 41362 316707 59663097 11.880611164382 3214.077721834716 894 0.08160449627556 900.1341541575 66983.55800637 24819877.341096
357	22260261 41037 339515 59663013 11.870574497716 3214.212299881002 890 32.235772667506 10924603.364007 872305403.17057 4.649721311533e+15
358	22301298 41072 339515 59663013 11.870574497716 3214.212299881002 890 0.10073678958596 911.41428464554 72952.162411182 32480637.565806
359	22342370 124292 76911 59666466 5.009775134597 3225.089775134597 3221 2297046.2242151 2649664 7639596652.4901 1.8122344828203e+16
360	22466662 111549 76911 59666466 5.009775134597 3225.089775134597 3221 200 1095 730302.52746128 191475579.78838
361	22578211 120808 77109 59665249 5.038770629763 3225.038770629763 3221 285376 308224 955992800 2.8373892405555e+14
362	22699019 107924 77109 59665249 5.038770629763 3225.038770629763 3221 49 51 161050 8052502
363	22806943 120808 77106 59665246 5.038770629763 3225.038770629763 3221 285600 285600 919917600 2.6272846656e+14
364	22927751 107924 77106 59665246 5.038770629763 3225.038770629763 3221 25 25 80525 2013125
365	23035675 89884 103766 59662632 6.900419635991 3224.599114628694 1951 81.730415091993 289467.42517729 26327128.599476 2483236952672.7
366	23125559 90172 103766 59662632 6.900419635991 3224.599114628694 1951 0.25540754716248 904.38221706914 80630.30874974 24112091.086179
367	23215731 88121 104351 59663011 6.951261482781 3224.649956475484 1915 101.93517593979 10924987.11739 987006730.75732 4.9411219964348e+15
368	23303852 88441 104351 59663011 6.951261482781 3224.649956475484 1915 0.28958856801076 912.41364241379 85747.184440736 34738384.776896
369	23392293 124237 76913 59666468 5.009775134597 3225.089775134597 3221 2019993.2560567 2087723.8321821 6691953399.1473 1.3903218099666e+16
370	23516530 111475 76913 59666468 5.009775134597 3225.089775134597 3221 170.21024188491 175.8419766769 563675.31588009 98643289.651093
375	23628005 124237 76918 59666473 5.009775134597 3225.089775134597 3221 2019993.2560567 2087723.8321821 6691953399.1473 1.3903218099666e+16
376	23752242 111475 76918 59666473 5.009775134597 3225.089775134597 3221 170.21024188491 175.8419766769 563675.31588009 98643289.651093
377	23863717 120808 77069 59665209 5.033770629763 3225.033770629763 3221 285600 285600 919917600 2.6272846656e+14
378	23984525 107924 77069 59665209 5.033770629763 3225.033770629763 3221 25 25 80525 2013125
379	24092449 120808 76746 59664872 5.003770629763 3225.003770629763 3221 285376 308224 955992800 2.8373892405555e+14
380	24213257 107924 76746 59664872 5.003770629763 3225.003770629763 3221 49 51 161050 8052502
381	24321181 88067 104017 59662749 6.924300271127 3224.62299526383 1914 101.93517593979 10924987.11739 1005992125.8016 5.1405709882597e+15
382	24409248 88375 104017 59662749 6.924300271127 3224.62299526383 1914 0.28958856801076 912.41364241379 87330.850469809 36135276.437956
383	24497623 89869 104013 59662745 6.924300271127 3224.62299526383 1951 81.730401732274 289467.42517729 26327132.281218 2483237966992.6
384	24587492 90149 104013 59662745 6.924300271127 3224.62299526383 1951 0.25540750541335 904.38221706914 80630.320192391 24112100.932629
385	24677641 124029 77076 59665216 5.038648337931 3225.038648337931 3221 2077600 2077824 6691955424 1.3903218690149e+16
386	24801670 111145 77076 59665216 5.038648337931 3225.038648337931 3221 175 176 563701 98652251
387	24912815 1165 5104613 57791618 120.038659957931 3000.998659957931 25 1.8660446517827 1.8660446517827 46.651116294568 87.053066061174
388	24913980 1240 5104613 57791618 120.038659957931 3000.998659957931 25 0.0083305564811729 0.0083305564811729 0.20826391202932 0.0017349542821503
389	24915220 41764 294254 59662234 11.808017099728 3214.002086771939 901 13.096916399564 289410.33135066 21507346.288783 2157755294397.2
390	24956984 41806 294254 59662234 11.808017099728 3214.002086771939 901 0.040927863748636 904.40728547082 67196.338834872 21061548.271233
391	24998790 50211 103315 59663153 6.889882117171 3219.55895502293 1084 7.9865094287152 10842944.401522 828740642.00005 3.3508822624526e+15
392	25049001 50450 103315 59663153 6.889882117171 3219.55895502293 1084 0.035654059949621 904.26880877203 69560.227477355 23459204.721993
399	25099451 6410 460322 59430649 14.6550963959 3194.294734129741 173 4.9914520121576 202.66666666667 9522.6454627583 1019823.9377802
400	25105861 8300 460322 59430649 14.6550963959 3194.294734129741 173 0.012998572948327 0.66666666666667 26.368084642588 8.6344178508633
401	25114161 13321 103309 59600671 6.889882116046 3208.220414661857 288 1.8664397076301 429.12868917518 23414.797298799 3759648.808939
402	25127482 13660 103309 59600671 6.889882116046 3208.220414661857 288 0.0083323201233485 1.9157530766749 104.53034508392 74.929225305703
409	25141142 6714 133916 59656203 8.632787953244 3219.217272208895 182 4.2282542211304 202.66666666667 9930.2542898108 1033857.6980041
410	25147856 8712 133916 59656203 8.632787953244 3219.217272208895 182 0.01101107870086 0.66666666666667 27.283148390199 8.5350902139718
411	25156568 13328 103394 59600641 6.889882104745 3208.220414650556 288 1.8664397076301 429.12868917518 23414.758789327 3759614.6835567
412	25169896 13665 103394 59600641 6.889882104745 3208.220414650556 288 0.0083323201233485 1.9157530766749 104.53017316664 74.928545192059
419	25183561 6575 539269 59526124 9.875770036396 3188.954255907455 177 3.4705455250433 202.66666666667 9563.9831861371 997059.28371368
420	25190136 8510 539269 59526124 9.875770036396 3188.954255907455 177 0.0090378789714669 0.66666666666667 26.360791638819 8.3122638483828
421	25198646 13325 103327 59600685 6.889882121747 3208.220414667558 288 1.8664397076301 429.12868917518 23414.761067014 3759613.4903639
422	25211971 13668 103327 59600685 6.889882121747 3208.220414667558 288 0.0083323201233485 1.9157530766749 104.53018333489 74.928521411908
429	25225639 6556 119873 59649669 7.254031574226 3218.589002117578 177 4.3342971054848 202.66666666667 9724.0308701928 1035942.7859868
430	25232195 8495 119873 59649669 7.254031574226 3218.589002117578 177 0.011287232045533 0.66666666666667 26.854088813665 8.711822517034
431	25240690 13322 103357 59600715 6.889882126777 3208.220414672588 288 1.8664397076301 429.12868917518 23414.772115103 3759631.1827659
432	25254012 13665 103357 59600715 6.889882126777 3208.220414672588 288 0.0083323201233485 1.9157530766749 104.53023265671 74.928874018772
439	25267677 6569 901505 59513121 25.083168004874 3200.052704889687 178 4.737529729226 202.66666666667 9795.4205764754 1042254.4621218
440	25274246 8519 901505 59513121 25.083168004874 3200.052704889687 178 0.012337317003193 0.66666666666667 27.104852187431 8.7897345572288
441	25282765 13322 103291 59600653 6.889882111845 3208.220414657656 288 1.8664397076301 429.12868917518 23414.747823868 3759604.5156282
442	25296087 13667 103291 59600653 6.889882111845 3208.220414657656 288 0.0083323201233485 1.9157530766749 104.5301242137 74.9283425468
449	25309754 6542 421341 59471632 12.591492793503 3197.162184025364 178 4.0103263027423 202.66666666667 9851.4055619104 1065229.2190088
450	25316296 8503 421341 59471632 12.591492793503 3197.162184025364 178 0.010443558080058 0.66666666666667 27.343816716344 9.0988899757077
451	25324799 13287 103277 59600635 6.889882094672 3208.220414640483 288 1.8664397076301 429.12868917518 23414.799515042 3759636.1877375
452	25338086 13626 103277 59600635 6.889882094672 3208.220414640483 288 0.0083323201233485 1.9157530766749 104.53035497787 74.92897376709
459	25351712 6526 993146 59630033 27.125538964124 3219.557794968807 176 3.6825610415795 202.66666666667 9782.0666980969 1078389.5868119
460	25358238 8453 993146 59630033 27.125538964124 3219.557794968807 176 0.0095900027124467 0.66666666666667 27.21779293104 9.3112358557527
461	25366691 13323 103321 59600780 6.889882121606 3208.220414667417 288 1.8664397076301 429.12868917518 23414.759856224 3759626.1833742
462	25380014 13664 103321 59600780 6.889882121606 3208.220414667417 288 0.0083323201233485 1.9157530766749 104.53017792957 74.928774381661
469	25393678 6491 548311 59621512 10.367415391864 3215.680820770355 175 3.6582175381515 202.66666666667 9587.0713258265 1022237.2919156
470	25400169 8386 548311 59621512 10.367415391864 3215.680820770355 175 0.0095266081722696 0.66666666666667 26.576150641743 8.6623441458918
471	25408555 13315 103333 59600691 6.889882122931 3208.220414668742 288 1.8664397076301 429.12868917518 23414.849460967 3759668.3658597
472	25421870 13661 103333 59600691 6.889882122931 3208.220414668742 288 0.0083323201233485 1.9157530766749 104.53057795074 74.929615072139
479	25435531 6654 116101 59606822 6.888722058828 3196.163058444857 179 5.2987820498379 202.66666666667 9773.7001954726 1020915.0552107
480	25442185 8597 116101 59606822 6.888722058828 3196.163058444857 179 0.01379891158812 0.66666666666667 26.9771719811 8.4996851738096
481	25450782 13321 103345 59600703 6.889948125826 3208.220414671637 288 1.8664397076301 429.12868917518 23414.828011573 3759655.3050332
482	25464103 13662 103345 59600703 6.889948125826 3208.220414671637 288 0.0083323201233485 1.9157530766749 104.53048219452 74.929354771867
489	25477765 6614 786439 59492933 22.58676387956 3186.64448044974 179 4.5561827355103 202.66666666667 9908.6489248644 1084207.9398922
490	25484379 8583 786439 59492933 22.58676387956 3186.64448044974 179 0.011865059207058 0.66666666666667 27.571654371755 9.3537978451663
491	25492962 13325 103363 59600721 6.889882130043 3208.220414675854 288 1.8664397076301 429.12868917518 23414.743998611 3759608.4053184
492	25506287 13665 103363 59600721 6.889882130043 3208.220414675854 288 0.0083323201233485 1.9157530766749 104.53010713666 74.92842006773
499	25519952 6388 1027909 59577456 30.613383238675 3211.219254603715 172 3.809720540907 202.66666666667 9424.0939829393 990458.02032518
500	25526340 8266 1027909 59577456 30.613383238675 3211.219254603715 172 0.0099211472419453 0.66666666666667 25.981326015122 8.2444194911993
501	25534606 13323 103351 59600709 6.88988212675 3208.220525672561 288 1.8664397076301 429.12868917518 23414.759928678 3759616.5437083
502	25547929 13658 103351 59600709 6.88988212675 3208.220525672561 288 0.0083323201233485 1.9157530766749 104.53017825303 74.928582264595
509	25561587 6746 890864 59592806 24.078593355922 3212.79980522964 182 3.7830673928125 202.66666666667 10111.024211921 1088263.5932136
510	25568333 8725 890864 59592806 24.078593355922 3212.79980522964 182 0.009851738002116 0.66666666666667 28.065390421607 9.267634636541
511	25577058 13328 103339 59600697 6.889882124305 3208.220414670116 288 1.8664397076301 429.12868917518 23414.802570918 3759643.8098928
512	25590386 13676 103339 59600697 6.889882124305 3208.220414670116 288 0.0083323201233485 1.9157530766749 104.53036862017 74.929125675478
519	25604062 6641 391911 59566743 11.024466317847 3192.135892164194 179 4.0561532139371 202.66666666667 9919.0739938437 1085510.0922554
520	25610703 8596 391911 59566743 11.024466317847 3192.135892164194 179 0.010562898994628 0.66666666666667 27.608520051062 9.3704938991179
521	25619299 13317 103297 59600659 6.889882112565 3208.220414658376 288 1.8664397076301 429.07566997943 23414.74172678 3759592.9083907
522	25632616 13657 103297 59600659 6.889882112565 3208.220414658376 288 0.0083323201233485 1.9155163838367 104.53009699455 74.928111216333