file 44517811 1471641762                                        
version 2
run _14to17on-7-20160819-23:16:13-13118
attr configname _14to17on
attr datetime 20160819-23:16:13
attr experiment _14to17on
attr inifile omnetpp.ini
attr iterationvars $0=14
attr iterationvars2 "$0=14, $repetition=7"
attr measurement $0=14
attr network University
attr processid 13118
attr repetition 7
attr replication #7
attr resultdir results
attr runnumber 7
attr seedset 7

vector 119  University.CCTV.udpApp[0]  sentPk:vector(packetBytes)  ETV
attr interpolationmode  none
attr source  sentPk
attr title  "packets sent, vector(packetBytes)"
vector 82  University.profLaptop.udpApp[0]  rcvdPk:vector(packetBytes)  ETV
attr interpolationmode  none
attr source  rcvdPk
attr title  "packets received, vector(packetBytes)"
vector 84  University.profLaptop.udpApp[0]  rcvdPkLifetime:vector  ETV
attr interpolationmode  none
attr source  messageAge(rcvdPk)
attr title  "received packet lifetime, vector"
attr unit  s
vector 83  University.profLaptop.udpApp[0]  sentPk:vector(packetBytes)  ETV
attr interpolationmode  none
attr source  sentPk
attr title  "packets sent, vector(packetBytes)"
vector 64  University.ccTVMonitoringHost.udpApp[0]  rcvdPk:vector(packetBytes)  ETV
attr interpolationmode  none
attr source  rcvdPk
attr title  "packets received, vector(packetBytes)"
vector 65  University.ccTVMonitoringHost.udpApp[0]  endToEndDelay:vector  ETV
attr interpolationmode  none
attr source  messageAge(rcvdPk)
attr title  "end-to-end delay, vector"
attr unit  s
vector 306  University.whostVideoConf.udpApp[0]  sentPk:vector(packetBytes)  ETV
attr interpolationmode  none
attr source  sentPk
attr title  "packets sent, vector(packetBytes)"
vector 152  University.whttpStudents[1].tcpApp[0]  numActiveSessions:vector  ETV
attr interpolationmode  sample-hold
attr source  sum(connect)
attr title  "number of active sessions, vector"
vector 385  University.CCTV.eth[0].outputHook[0]  "thruput (bit/sec)"  ETV
vector 386  University.CCTV.eth[0].outputHook[0]  packet/sec  ETV
vector 351  University.remoteR.eth[1].inputHook[0]  "thruput (bit/sec)"  ETV
vector 352  University.remoteR.eth[1].inputHook[0]  packet/sec  ETV
vector 353  University.remoteR.ppp[0].outputHook[0]  "thruput (bit/sec)"  ETV
vector 354  University.remoteR.ppp[0].outputHook[0]  packet/sec  ETV
vector 359  University.mainR.ppp[0].inputHook[0]  "thruput (bit/sec)"  ETV
vector 360  University.mainR.ppp[0].inputHook[0]  packet/sec  ETV
vector 369  University.mainR.ppp[3].outputHook[0]  "thruput (bit/sec)"  ETV
vector 370  University.mainR.ppp[3].outputHook[0]  packet/sec  ETV
vector 375  University.ccTVMonitoringHost.ppp[0].inputHook[0]  "thruput (bit/sec)"  ETV
vector 376  University.ccTVMonitoringHost.ppp[0].inputHook[0]  packet/sec  ETV
vector 377  University.profLaptop.ppp[0].outputHook[0]  "thruput (bit/sec)"  ETV
vector 378  University.profLaptop.ppp[0].outputHook[0]  packet/sec  ETV
vector 363  University.mainR.ppp[1].inputHook[0]  "thruput (bit/sec)"  ETV
vector 364  University.mainR.ppp[1].inputHook[0]  packet/sec  ETV
vector 361  University.mainR.ppp[1].outputHook[0]  "thruput (bit/sec)"  ETV
vector 362  University.mainR.ppp[1].outputHook[0]  packet/sec  ETV
vector 379  University.profLaptop.ppp[0].inputHook[0]  "thruput (bit/sec)"  ETV
vector 380  University.profLaptop.ppp[0].inputHook[0]  packet/sec  ETV
vector 529  University.whostVideoConf.wlan[0].outputHook[0]  "thruput (bit/sec)"  ETV
vector 530  University.whostVideoConf.wlan[0].outputHook[0]  packet/sec  ETV
vector 551  University.accessPoint.wlan[0].inputHook[0]  "thruput (bit/sec)"  ETV
vector 552  University.accessPoint.wlan[0].inputHook[0]  packet/sec  ETV
vector 559  University.accessPoint.eth[0].outputHook[0]  "thruput (bit/sec)"  ETV
vector 560  University.accessPoint.eth[0].outputHook[0]  packet/sec  ETV
vector 347  University.remoteR.eth[0].inputHook[0]  "thruput (bit/sec)"  ETV
vector 348  University.remoteR.eth[0].inputHook[0]  packet/sec  ETV
vector 248  University.whttpStudents[9].tcpApp[0]  numActiveSessions:vector  ETV
attr interpolationmode  sample-hold
attr source  sum(connect)
attr title  "number of active sessions, vector"
vector 212  University.whttpStudents[6].tcpApp[0]  numActiveSessions:vector  ETV
attr interpolationmode  sample-hold
attr source  sum(connect)
attr title  "number of active sessions, vector"
vector 345  University.remoteR.eth[0].outputHook[0]  "thruput (bit/sec)"  ETV
vector 346  University.remoteR.eth[0].outputHook[0]  packet/sec  ETV
vector 561  University.accessPoint.eth[0].inputHook[0]  "thruput (bit/sec)"  ETV
vector 562  University.accessPoint.eth[0].inputHook[0]  packet/sec  ETV
vector 549  University.accessPoint.wlan[0].outputHook[0]  "thruput (bit/sec)"  ETV
vector 550  University.accessPoint.wlan[0].outputHook[0]  packet/sec  ETV
vector 441  University.whttpStudents[5].wlan[0].inputHook[0]  "thruput (bit/sec)"  ETV
vector 442  University.whttpStudents[5].wlan[0].inputHook[0]  packet/sec  ETV
vector 411  University.whttpStudents[2].wlan[0].inputHook[0]  "thruput (bit/sec)"  ETV
vector 412  University.whttpStudents[2].wlan[0].inputHook[0]  packet/sec  ETV
vector 511  University.whttpStudents[12].wlan[0].inputHook[0]  "thruput (bit/sec)"  ETV
vector 512  University.whttpStudents[12].wlan[0].inputHook[0]  packet/sec  ETV
vector 471  University.whttpStudents[8].wlan[0].inputHook[0]  "thruput (bit/sec)"  ETV
vector 472  University.whttpStudents[8].wlan[0].inputHook[0]  packet/sec  ETV
vector 531  University.whostVideoConf.wlan[0].inputHook[0]  "thruput (bit/sec)"  ETV
vector 532  University.whostVideoConf.wlan[0].inputHook[0]  packet/sec  ETV
vector 481  University.whttpStudents[9].wlan[0].inputHook[0]  "thruput (bit/sec)"  ETV
vector 482  University.whttpStudents[9].wlan[0].inputHook[0]  packet/sec  ETV
vector 491  University.whttpStudents[10].wlan[0].inputHook[0]  "thruput (bit/sec)"  ETV
vector 492  University.whttpStudents[10].wlan[0].inputHook[0]  packet/sec  ETV
vector 521  University.whttpStudents[13].wlan[0].inputHook[0]  "thruput (bit/sec)"  ETV
vector 522  University.whttpStudents[13].wlan[0].inputHook[0]  packet/sec  ETV
vector 461  University.whttpStudents[7].wlan[0].inputHook[0]  "thruput (bit/sec)"  ETV
vector 462  University.whttpStudents[7].wlan[0].inputHook[0]  packet/sec  ETV
vector 401  University.whttpStudents[1].wlan[0].inputHook[0]  "thruput (bit/sec)"  ETV
vector 402  University.whttpStudents[1].wlan[0].inputHook[0]  packet/sec  ETV
vector 391  University.whttpStudents[0].wlan[0].inputHook[0]  "thruput (bit/sec)"  ETV
vector 392  University.whttpStudents[0].wlan[0].inputHook[0]  packet/sec  ETV
vector 501  University.whttpStudents[11].wlan[0].inputHook[0]  "thruput (bit/sec)"  ETV
vector 502  University.whttpStudents[11].wlan[0].inputHook[0]  packet/sec  ETV
vector 431  University.whttpStudents[4].wlan[0].inputHook[0]  "thruput (bit/sec)"  ETV
vector 432  University.whttpStudents[4].wlan[0].inputHook[0]  packet/sec  ETV
vector 541  University.whostFTP.wlan[0].inputHook[0]  "thruput (bit/sec)"  ETV
vector 542  University.whostFTP.wlan[0].inputHook[0]  packet/sec  ETV
vector 421  University.whttpStudents[3].wlan[0].inputHook[0]  "thruput (bit/sec)"  ETV
vector 422  University.whttpStudents[3].wlan[0].inputHook[0]  packet/sec  ETV
vector 451  University.whttpStudents[6].wlan[0].inputHook[0]  "thruput (bit/sec)"  ETV
vector 452  University.whttpStudents[6].wlan[0].inputHook[0]  packet/sec  ETV
vector 365  University.mainR.ppp[2].outputHook[0]  "thruput (bit/sec)"  ETV
vector 366  University.mainR.ppp[2].outputHook[0]  packet/sec  ETV
vector 383  University.Server.ppp[0].inputHook[0]  "thruput (bit/sec)"  ETV
vector 384  University.Server.ppp[0].inputHook[0]  packet/sec  ETV
vector 381  University.Server.ppp[0].outputHook[0]  "thruput (bit/sec)"  ETV
vector 382  University.Server.ppp[0].outputHook[0]  packet/sec  ETV
vector 367  University.mainR.ppp[2].inputHook[0]  "thruput (bit/sec)"  ETV
vector 368  University.mainR.ppp[2].inputHook[0]  packet/sec  ETV
vector 176  University.whttpStudents[3].tcpApp[0]  numActiveSessions:vector  ETV
attr interpolationmode  sample-hold
attr source  sum(connect)
attr title  "number of active sessions, vector"
vector 399  University.whttpStudents[1].wlan[0].outputHook[0]  "thruput (bit/sec)"  ETV
vector 400  University.whttpStudents[1].wlan[0].outputHook[0]  packet/sec  ETV
vector 479  University.whttpStudents[9].wlan[0].outputHook[0]  "thruput (bit/sec)"  ETV
vector 480  University.whttpStudents[9].wlan[0].outputHook[0]  packet/sec  ETV
vector 449  University.whttpStudents[6].wlan[0].outputHook[0]  "thruput (bit/sec)"  ETV
vector 450  University.whttpStudents[6].wlan[0].outputHook[0]  packet/sec  ETV
vector 188  University.whttpStudents[4].tcpApp[0]  numActiveSessions:vector  ETV
attr interpolationmode  sample-hold
attr source  sum(connect)
attr title  "number of active sessions, vector"
vector 164  University.whttpStudents[2].tcpApp[0]  numActiveSessions:vector  ETV
attr interpolationmode  sample-hold
attr source  sum(connect)
attr title  "number of active sessions, vector"
vector 419  University.whttpStudents[3].wlan[0].outputHook[0]  "thruput (bit/sec)"  ETV
vector 420  University.whttpStudents[3].wlan[0].outputHook[0]  packet/sec  ETV
vector 519  University.whttpStudents[13].wlan[0].outputHook[0]  "thruput (bit/sec)"  ETV
vector 520  University.whttpStudents[13].wlan[0].outputHook[0]  packet/sec  ETV
vector 429  University.whttpStudents[4].wlan[0].outputHook[0]  "thruput (bit/sec)"  ETV
vector 430  University.whttpStudents[4].wlan[0].outputHook[0]  packet/sec  ETV
vector 409  University.whttpStudents[2].wlan[0].outputHook[0]  "thruput (bit/sec)"  ETV
vector 410  University.whttpStudents[2].wlan[0].outputHook[0]  packet/sec  ETV
vector 224  University.whttpStudents[7].tcpApp[0]  numActiveSessions:vector  ETV
attr interpolationmode  sample-hold
attr source  sum(connect)
attr title  "number of active sessions, vector"
vector 140  University.whttpStudents[0].tcpApp[0]  numActiveSessions:vector  ETV
attr interpolationmode  sample-hold
attr source  sum(connect)
attr title  "number of active sessions, vector"
vector 138  University.whttpStudents[0].tcpApp[0]  sentPk:vector(packetBytes)  ETV
attr interpolationmode  none
attr source  sentPk
attr title  "packets sent, vector(packetBytes)"
vector 101  University.Server.tcpApp[0]  rcvdPk:vector(packetBytes)  ETV
attr interpolationmode  none
attr source  rcvdPk
attr title  "packets received, vector(packetBytes)"
vector 103  University.Server.tcpApp[0]  endToEndDelay:vector  ETV
attr interpolationmode  none
attr source  messageAge(rcvdPk)
attr title  "end-to-end delay, vector"
attr unit  s
vector 102  University.Server.tcpApp[0]  sentPk:vector(packetBytes)  ETV
attr interpolationmode  none
attr source  sentPk
attr title  "packets sent, vector(packetBytes)"
vector 459  University.whttpStudents[7].wlan[0].outputHook[0]  "thruput (bit/sec)"  ETV
vector 460  University.whttpStudents[7].wlan[0].outputHook[0]  packet/sec  ETV
vector 389  University.whttpStudents[0].wlan[0].outputHook[0]  "thruput (bit/sec)"  ETV
vector 390  University.whttpStudents[0].wlan[0].outputHook[0]  packet/sec  ETV
vector 357  University.mainR.ppp[0].outputHook[0]  "thruput (bit/sec)"  ETV
vector 358  University.mainR.ppp[0].outputHook[0]  packet/sec  ETV
vector 355  University.remoteR.ppp[0].inputHook[0]  "thruput (bit/sec)"  ETV
vector 356  University.remoteR.ppp[0].inputHook[0]  packet/sec  ETV
vector 272  University.whttpStudents[11].tcpApp[0]  numActiveSessions:vector  ETV
attr interpolationmode  sample-hold
attr source  sum(connect)
attr title  "number of active sessions, vector"
vector 539  University.whostFTP.wlan[0].outputHook[0]  "thruput (bit/sec)"  ETV
vector 540  University.whostFTP.wlan[0].outputHook[0]  packet/sec  ETV
vector 137  University.whttpStudents[0].tcpApp[0]  rcvdPk:vector(packetBytes)  ETV
attr interpolationmode  none
attr source  rcvdPk
attr title  "packets received, vector(packetBytes)"
vector 139  University.whttpStudents[0].tcpApp[0]  endToEndDelay:vector  ETV
attr interpolationmode  none
attr source  messageAge(rcvdPk)
attr title  "end-to-end delay, vector"
attr unit  s
vector 499  University.whttpStudents[11].wlan[0].outputHook[0]  "thruput (bit/sec)"  ETV
vector 500  University.whttpStudents[11].wlan[0].outputHook[0]  packet/sec  ETV
vector 200  University.whttpStudents[5].tcpApp[0]  numActiveSessions:vector  ETV
attr interpolationmode  sample-hold
attr source  sum(connect)
attr title  "number of active sessions, vector"
vector 439  University.whttpStudents[5].wlan[0].outputHook[0]  "thruput (bit/sec)"  ETV
vector 440  University.whttpStudents[5].wlan[0].outputHook[0]  packet/sec  ETV
vector 236  University.whttpStudents[8].tcpApp[0]  numActiveSessions:vector  ETV
attr interpolationmode  sample-hold
attr source  sum(connect)
attr title  "number of active sessions, vector"
vector 469  University.whttpStudents[8].wlan[0].outputHook[0]  "thruput (bit/sec)"  ETV
vector 470  University.whttpStudents[8].wlan[0].outputHook[0]  packet/sec  ETV
vector 260  University.whttpStudents[10].tcpApp[0]  numActiveSessions:vector  ETV
attr interpolationmode  sample-hold
attr source  sum(connect)
attr title  "number of active sessions, vector"
vector 489  University.whttpStudents[10].wlan[0].outputHook[0]  "thruput (bit/sec)"  ETV
vector 490  University.whttpStudents[10].wlan[0].outputHook[0]  packet/sec  ETV
vector 284  University.whttpStudents[12].tcpApp[0]  numActiveSessions:vector  ETV
attr interpolationmode  sample-hold
attr source  sum(connect)
attr title  "number of active sessions, vector"
vector 509  University.whttpStudents[12].wlan[0].outputHook[0]  "thruput (bit/sec)"  ETV
vector 510  University.whttpStudents[12].wlan[0].outputHook[0]  packet/sec  ETV
vector 324  University.whostFTP.tcpApp[0]  numActiveSessions:vector  ETV
attr interpolationmode  sample-hold
attr source  sum(connect)
attr title  "number of active sessions, vector"
vector 296  University.whttpStudents[13].tcpApp[0]  numActiveSessions:vector  ETV
attr interpolationmode  sample-hold
attr source  sum(connect)
attr title  "number of active sessions, vector"
vector 349  University.remoteR.eth[1].outputHook[0]  "thruput (bit/sec)"  ETV
vector 350  University.remoteR.eth[1].outputHook[0]  packet/sec  ETV
vector 387  University.CCTV.eth[0].inputHook[0]  "thruput (bit/sec)"  ETV
vector 388  University.CCTV.eth[0].inputHook[0]  packet/sec  ETV
64	14410 2885968 66288 67477312 5.018317645156 3255.498317645156 81263 10240 10240 832133120 8521043148800
65	2900378 3617318 66288 67477312 5.018317645156 3255.498317645156 81263 0.017080129996 0.018068129995 1388.1523093378 23.7127746444
82	6517696 2804312 66211 67477588 5.012710751084 3255.532710751084 81264 1400 1400 113769600 159277440000
83	9322008 2804719 66212 67477236 5.012758889105 3255.492758889105 81263 1400 1400 113768200 159275480000
84	12126727 3616700 66211 67477235 5.012710751084 3255.492710751084 81263 0.016345616331 0.130770820273 1332.5200422521 21.900534153067
101	15743427 5436 210737 67308021 19.331821591083 3252.020766125832 168 1 1 168 168
102	15748863 6319 210737 67308021 19.331821591083 3252.020766125832 168 35 4199169 152284259 2.4331351341352e+14
103	15755182 7618 210737 67308021 19.331821591083 3252.020766125832 168 0.013191053844 0.019469939763 2.305926635079 0.031953131280094
119	15762800 2886018 66096 67477473 5.00123751516 3255.52123751516 81264 10240 10240 832143360 8521148006400
137	18648818 6319 383485 67462869 21.961161097645 3254.104159045737 168 35 4199169 152284259 2.4331351341352e+14
138	18655137 5434 210227 67307500 19.318594537239 3252.002311975486 168 1 1 168 168
139	18660571 7598 383485 67462869 21.961161097645 3254.104159045737 168 0.031427502918 7.382000389017 501.49146658723 2358.3752162031
140	18668169 10863 209231 67462869 19.281278008667 3254.104159045737 336 0 1 168 168
152	18679032 1189 71128 66080572 5.522816594271 3175.969712917076 36 1 36 666 16206
164	18680221 1224 121833 66794803 10.430859374296 3215.978131927412 37 1 37 703 17575
176	18681445 1158 98129 66978947 8.154680483121 3234.878170482291 35 1 35 630 14910
188	18682603 1195 120881 67001763 10.393683078228 3237.140092402818 36 1 36 666 16206
200	18683798 1228 467161 66957646 30.465652495106 3232.682164595588 37 1 37 703 17575
212	18685026 1190 88338 66321521 7.193323660225 3200.781431942937 36 1 36 666 16206
224	18686216 1227 184920 66716643 16.828079831561 3207.894130189689 37 1 37 703 17575
236	18687443 1194 521714 66797158 36.051591147907 3216.206528701109 36 1 36 666 16206
248	18688637 1158 80006 66280935 6.369098285642 3196.648725128324 35 1 35 630 14910
260	18689795 1163 561968 66794279 40.149586292089 3215.941364450371 35 1 35 630 14910
272	18690958 1193 360781 66254120 20.840248996126 3193.926126789274 36 1 36 666 16206
284	18692151 1191 876419 67464903 44.974882717782 3254.232399172074 36 1 36 666 16206
296	18693342 1226 1868244 66063286 82.377508304345 3174.283235270209 37 1 37 703 17575
306	18694568 2885983 66366 67477318 5.036365134753 3255.516365134753 81263 1400 1400 113768200 159275480000
324	21580551 875 1612917 66883449 75 3225 43 1 43 946 27434
345	21581426 36665 88424 67461593 5.522888436296 3253.032444611815 793 5.8169773992053 11272291.639169 1057302316.7819 5.0468143177855e+15
346	21618091 36931 88424 67461593 5.522888436296 3253.032444611815 793 0.025968649103595 939.40760508702 88666.391694627 35341373.468056
347	21655022 124349 76808 67469780 5.036754084418 3253.716754084418 3247 275678.16630911 575610.37355558 962152252.47669 2.8889657318485e+14
348	21779371 112666 76808 67469780 5.036754084418 3253.716754084418 3247 25 929.66423274327 189499.18919532 47598908.052555
349	21892037 1186 5393155 67040738 120.04124332516 3121.04124332516 26 1.8660446517827 1.8660446517827 48.517160946351 90.535188703621
350	21893223 1264 5393155 67040738 120.04124332516 3121.04124332516 26 0.0083305564811729 0.0083305564811729 0.2165944685105 0.0018043524534363
351	21894487 122191 76467 67472560 5.00135964516 3254.001482685159 3250 2077600 2089367.2027084 6752217791.0587 1.4028444785219e+16
352	22016678 109199 76467 67472560 5.00135964516 3254.001482685159 3250 175 176 568777.97834717 99541070.378592
353	22125877 122191 76469 67472562 5.00135964516 3254.001482685159 3250 2363200 2662944 7715305659.9202 1.8319227226307e+16
354	22248068 109206 76469 67472562 5.00135964516 3254.001482685159 3250 200 1105 758495.97527148 211731402.05964
355	22357274 27210 350804 67461591 19.318518535072 3253.032444611815 588 92.878567092957 11272291.639169 1032835469.2103 5.0427435837308e+15
356	22384484 27264 350804 67461591 19.318518535072 3253.032444611815 588 0.074039436324873 939.40760508702 86432.931763004 35277601.125494
357	22411748 27199 350652 67461359 19.308481868406 3253.021439945149 588 16.885236545418 11324569.562956 1182600631.4149 6.8318025920556e+15
358	22438947 27276 350652 67461359 19.308481868406 3253.021439945149 588 0.05276636420443 943.73745709025 98922.5678828 47759208.80292
359	22466223 125652 76542 67474527 5.012364311826 3254.207710751084 3250 2328044.4631727 2661281.232598 7715289623.232 1.8319238745635e+16
360	22591875 113020 76542 67474527 5.012364311826 3254.207710751084 3250 200 1103.1671596571 758468.60364644 212247715.94759
361	22704895 121922 76617 67472701 5.017758889105 3254.017758889105 3250 285376 308224 964600000 2.8629458507776e+14
362	22826817 108922 76617 67472701 5.017758889105 3254.017758889105 3250 49 51 162500 8125010
363	22935739 121922 76614 67472698 5.017758889105 3254.017758889105 3250 285600 285600 928200000 2.6509392e+14
364	23057661 108922 76614 67472698 5.017758889105 3254.017758889105 3250 25 25 81250 2031250
365	23166583 81144 89154 67461338 5.538354311822 3253.011196868565 1758 102.36663828232 293962.09674288 32570092.750783 3780476259168.7
366	23247727 81304 89154 67461338 5.538354311822 3253.011196868565 1758 0.2399218084742 915.23439409015 100263.65135748 36729256.570888
367	23329031 80792 89224 67461357 5.548481868406 3253.021439945149 1749 56.301651055278 11324569.562956 1275719885.6145 6.8114637820437e+15
368	23409823 81062 89224 67461357 5.548481868406 3253.021439945149 1749 0.15994787231613 943.73745709025 109681.20108882 47978307.54804
369	23490885 125513 76544 67474537 5.012364311826 3254.212364311826 3250 2019993.2560567 2089109.2337435 6752209526.8838 1.4028429982928e+16
370	23616398 112830 76544 67474537 5.012364311826 3254.212364311826 3250 170.21024188491 175.95866440413 568750.79211706 99531663.284224
375	23729228 125513 76549 67474542 5.012364311826 3254.212364311826 3250 2019993.2560567 2089109.2337435 6752209526.8838 1.4028429982928e+16
376	23854741 112830 76549 67474542 5.012364311826 3254.212364311826 3250 170.21024188491 175.95866440413 568750.79211706 99531663.284224
377	23967571 121922 76559 67472643 5.012758889105 3254.012758889105 3250 285600 285600 928200000 2.6509392e+14
378	24089493 108922 76559 67472643 5.012758889105 3254.012758889105 3250 25 25 81250 2031250
379	24198415 121922 76634 67472718 5.022758889105 3254.022758889105 3250 285376 308224 964600000 2.8629458507776e+14
380	24320337 108922 76634 67472718 5.022758889105 3254.022758889105 3250 49 51 162500 8125010
381	24429259 80794 89169 67461347 5.540740019166 3253.013581935909 1749 56.301651055278 15728726.572075 1302452621.9677 7.1893635793307e+15
382	24510053 81085 89169 67461347 5.540740019166 3253.013581935909 1749 0.15994787231613 1314.5846521718 111910.14656818 50616508.366277
383	24591138 81200 89165 67461343 5.540740019166 3253.013581935909 1758 102.36663828232 293962.09674288 32570099.712285 3780478337606.3
384	24672338 81356 89165 67461343 5.540740019166 3253.013581935909 1758 0.2399218084742 915.23439409015 100263.67303874 36729276.746768
385	24753694 121922 76443 67472527 5.00123751516 3254.00123751516 3250 2077600 2077824 6752206048 1.4028395852004e+16
386	24875616 108922 76443 67472527 5.00123751516 3254.00123751516 3250 175 176 568777 99540727
387	24984538 1186 5393162 67040745 120.04124913516 3121.04124913516 26 1.8660446517827 1.8660446517827 48.517160946351 90.535188703621
388	24985724 1264 5393162 67040745 120.04124913516 3121.04124913516 26 0.0083305564811729 0.0083305564811729 0.2165944685105 0.0018043524534363
389	24986988 27361 350123 67460993 19.281278008667 3253.000775693065 591 17.257997439352 289593.22791594 27881748.954914 3681813725694.6
390	25014349 27404 350123 67460993 19.281278008667 3253.000775693065 591 0.053931241997975 904.97883723731 87109.428612642 35936888.472926
391	25041753 36683 88589 67461659 5.523976658463 3253.032852773981 793 5.8169773992053 10861140.807337 1052485245.1684 4.9872535911884e+15
392	25078436 36937 88589 67461659 5.523976658463 3253.032852773981 793 0.025968649103595 905.14502009376 88264.23453152 34926326.474228
399	25115373 6607 102362 66844016 5.522816594271 3196.969712917076 179 5.2957443158483 202.66666666667 9684.1076948646 994660.14654883
400	25121980 8578 102362 66844016 5.522816594271 3196.969712917076 179 0.013791000822522 0.66666666666667 26.568872047345 8.1444057566934
401	25130558 12724 88583 67438576 5.524096658321 3241.649885183439 276 1.866107045906 417.11603404341 19699.324563114 2910622.6205521
402	25143282 13058 88583 67438576 5.524096658321 3241.649885183439 276 0.0083308350263661 1.8621251519795 87.943413228188 58.008263324141
409	25156340 6741 151669 66999997 10.430859374296 3224.978131927412 183 5.9734461629505 202.66666666667 9966.9267827474 1038085.4029004
410	25163081 8774 151669 66999997 10.430859374296 3224.978131927412 183 0.015555849382684 0.66666666666667 27.385965580635 8.5852496996803
411	25171855 12755 88533 67438526 5.523976642256 3241.649885167374 276 1.866107045906 417.11603404341 19699.212854274 2910572.0604895
412	25184610 13080 88533 67438526 5.523976642256 3241.649885167374 276 0.0083308350263661 1.8621251519795 87.942914528007 58.007255669833
419	25197690 6378 129364 67068706 8.154680483121 3237.878170482291 172 2.8400760431274 202.66666666667 9447.1280220277 996104.50550864
420	25204068 8253 129364 67068706 8.154680483121 3237.878170482291 172 0.0073960313623108 0.66666666666667 26.093830954215 8.321306683663
421	25212321 12760 88613 67438606 5.523976665984 3241.649885191102 276 1.866107045906 417.11603404341 19699.266376704 2910590.3397306
422	25225081 13096 88613 67438606 5.523976665984 3241.649885191102 276 0.0083308350263661 1.8621251519795 87.943153467428 58.007619972309
429	25238177 6569 151116 67233705 10.393683078228 3240.140092402818 177 4.1775165304492 202.66666666667 9582.9961762038 973724.52930576
430	25244746 8501 151116 67233705 10.393683078228 3240.140092402818 177 0.010878949298045 0.66666666666667 26.223524117117 7.8715211074609
431	25253247 12760 88601 67438594 5.523976662095 3241.649885187213 276 1.866107045906 417.06594147422 19699.31708869 2910608.4400735
432	25266007 13092 88601 67438594 5.523976662095 3241.649885187213 276 0.0083308350263661 1.8619015244385 87.943379860224 58.007980709373
439	25279099 6760 496796 67454705 30.465652495106 3241.682164595588 183 5.5435827690945 202.66666666667 9947.9673572363 1033498.2339897
440	25285859 8789 496796 67454705 30.465652495106 3241.682164595588 183 0.014436413461184 0.66666666666667 27.307894299353 8.5237594143385
441	25294648 12759 88527 67438520 5.523976638395 3241.649885163513 276 1.866107045906 417.11603404341 19699.315293954 2910619.7924467
442	25307407 13089 88527 67438520 5.523976638395 3241.649885163513 276 0.0083308350263661 1.8621251519795 87.943371848011 58.008206960434
449	25320496 6600 118774 67226232 7.193323660225 3221.781431942937 179 4.6386565716906 202.66666666667 9603.5049850168 969785.52749883
450	25327096 8588 118774 67226232 7.193323660225 3221.781431942937 179 0.012079834822111 0.66666666666667 26.216779616447 7.809273182224
451	25335684 12740 88659 67438556 5.523976649489 3241.649885174607 276 1.866107045906 417.11603404341 19699.310537516 2910622.6462647
452	25348424 13077 88659 67438556 5.523976649489 3241.649885174607 276 0.0083308350263661 1.8621251519795 87.943350613912 58.008263836588
459	25361501 6787 324024 67438324 16.828079831561 3228.894130189689 184 5.4681747083885 202.66666666667 9907.1160895607 1009709.0484954
460	25368288 8832 324024 67438324 16.828079831561 3228.894130189689 184 0.014240038303095 0.66666666666667 27.080401777723 8.199600556858
461	25377120 12728 88577 67438661 5.523976656121 3241.649885181239 276 1.866107045906 417.11603404341 19699.311820957 2910623.0258569
462	25389848 13062 88577 67438661 5.523976656121 3241.649885181239 276 0.0083308350263661 1.8621251519795 87.943356343557 58.008271401803
469	25402910 6598 551150 67002552 36.051591147907 3225.206528701109 178 4.9451293198749 202.66666666667 9711.057570515 1014151.73
470	25409508 8545 551150 67002552 36.051591147907 3225.206528701109 178 0.012877940937174 0.66666666666667 26.728878381065 8.4102270022448
471	25418053 12761 88545 67438538 5.523976644514 3241.649885169632 276 1.866107045906 417.11603404341 19699.338126579 2910644.3974448
472	25430814 13098 88545 67438538 5.523976644514 3241.649885169632 276 0.0083308350263661 1.8621251519795 87.943473779369 58.008697334278
479	25443912 6448 110823 67046224 6.369098285642 3217.648725128324 174 5.270217964302 202.66666666667 9422.9275531704 972752.95876496
480	25450360 8349 110823 67046224 6.369098285642 3217.648725128324 174 0.013894530978799 0.66666666666667 25.890079224322 7.9968628068825
481	25458709 12744 88557 67438550 5.523976649386 3241.649978174504 276 1.866107045906 417.11603404341 19699.250481689 2910590.9685654
482	25471453 13090 88557 67438550 5.523976649386 3241.649978174504 276 0.0083308350263661 1.8621251519795 87.943082507542 58.007632504891
489	25484543 6418 613062 66999456 40.149586292089 3224.941364450371 173 4.0758354927962 202.66666666667 9387.399207931 970857.21411895
490	25490961 8316 613062 66999456 40.149586292089 3224.941364450371 173 0.010614154929157 0.66666666666667 25.760825011127 7.973042885289
491	25499277 12726 88565 67438562 5.523976655128 3241.649885180246 276 1.866107045906 417.11603404341 19699.315152499 2910615.2117609
492	25512003 13069 88565 67438562 5.523976655128 3241.649885180246 276 0.0083308350263661 1.8621251519795 87.943371216513 58.008115668067
499	25525072 6634 402368 67019354 20.840248996126 3214.926126789274 179 4.5549275996185 202.66666666667 9772.0025279656 1023952.9396604
500	25531706 8593 402368 67019354 20.840248996126 3214.926126789274 179 0.011861790624007 0.66666666666667 26.963299920772 8.5401383471895
501	25540299 12727 88595 67438588 5.523976661728 3241.649885186846 276 1.866107045906 417.11603404341 19699.321185991 2910614.4847462
502	25553026 13066 88595 67438588 5.523976661728 3241.649885186846 276 0.0083308350263661 1.8621251519795 87.943398151746 58.008101178774
509	25566092 6481 923327 67464906 44.974882717782 3223.203646009235 175 4.460512690848 202.66666666667 9537.6785273415 1014719.0912534
510	25572573 8387 923327 67464906 44.974882717782 3223.203646009235 175 0.01161591846575 0.66666666666667 26.354886998632 8.5609262366634
511	25580960 12738 88539 67438532 5.52397664397 3241.649885169088 276 1.866107045906 417.11603404341 19699.261067171 2910602.7416603
512	25593698 13075 88539 67438532 5.52397664397 3241.649885169088 276 0.0083308350263661 1.8621251519795 87.943129764158 58.007867140871
519	25606773 6943 136422 66827748 5.868365762044 3195.283235270209 188 5.5317985292139 202.66666666667 10219.51149995 1070563.2784843
520	25613716 9008 136422 66827748 5.868365762044 3195.283235270209 188 0.014405725336495 0.66666666666667 28.207254071855 8.9815480020182
521	25622724 12722 88571 67438568 5.523976655841 3241.649885180959 276 1.866107045906 417.11603404341 19699.267377228 2910594.6896915
522	25635446 13058 88571 67438568 5.523976655841 3241.649885180959 276 0.0083308350263661 1.8621251519795 87.943157934052 58.007706666364