file 44449978 1471641957                                        
version 2
run _14to17on-9-20160819-23:21:10-13268
attr configname _14to17on
attr datetime 20160819-23:21:10
attr experiment _14to17on
attr inifile omnetpp.ini
attr iterationvars $0=14
attr iterationvars2 "$0=14, $repetition=9"
attr measurement $0=14
attr network University
attr processid 13268
attr repetition 9
attr replication #9
attr resultdir results
attr runnumber 9
attr seedset 9

vector 64  University.ccTVMonitoringHost.udpApp[0]  rcvdPk:vector(packetBytes)  ETV
attr interpolationmode  none
attr source  rcvdPk
attr title  "packets received, vector(packetBytes)"
vector 65  University.ccTVMonitoringHost.udpApp[0]  endToEndDelay:vector  ETV
attr interpolationmode  none
attr source  messageAge(rcvdPk)
attr title  "end-to-end delay, vector"
attr unit  s
vector 82  University.profLaptop.udpApp[0]  rcvdPk:vector(packetBytes)  ETV
attr interpolationmode  none
attr source  rcvdPk
attr title  "packets received, vector(packetBytes)"
vector 84  University.profLaptop.udpApp[0]  rcvdPkLifetime:vector  ETV
attr interpolationmode  none
attr source  messageAge(rcvdPk)
attr title  "received packet lifetime, vector"
attr unit  s
vector 83  University.profLaptop.udpApp[0]  sentPk:vector(packetBytes)  ETV
attr interpolationmode  none
attr source  sentPk
attr title  "packets sent, vector(packetBytes)"
vector 119  University.CCTV.udpApp[0]  sentPk:vector(packetBytes)  ETV
attr interpolationmode  none
attr source  sentPk
attr title  "packets sent, vector(packetBytes)"
vector 306  University.whostVideoConf.udpApp[0]  sentPk:vector(packetBytes)  ETV
attr interpolationmode  none
attr source  sentPk
attr title  "packets sent, vector(packetBytes)"
vector 200  University.whttpStudents[5].tcpApp[0]  numActiveSessions:vector  ETV
attr interpolationmode  sample-hold
attr source  sum(connect)
attr title  "number of active sessions, vector"
vector 359  University.mainR.ppp[0].inputHook[0]  "thruput (bit/sec)"  ETV
vector 360  University.mainR.ppp[0].inputHook[0]  packet/sec  ETV
vector 369  University.mainR.ppp[3].outputHook[0]  "thruput (bit/sec)"  ETV
vector 370  University.mainR.ppp[3].outputHook[0]  packet/sec  ETV
vector 375  University.ccTVMonitoringHost.ppp[0].inputHook[0]  "thruput (bit/sec)"  ETV
vector 376  University.ccTVMonitoringHost.ppp[0].inputHook[0]  packet/sec  ETV
vector 377  University.profLaptop.ppp[0].outputHook[0]  "thruput (bit/sec)"  ETV
vector 378  University.profLaptop.ppp[0].outputHook[0]  packet/sec  ETV
vector 363  University.mainR.ppp[1].inputHook[0]  "thruput (bit/sec)"  ETV
vector 364  University.mainR.ppp[1].inputHook[0]  packet/sec  ETV
vector 361  University.mainR.ppp[1].outputHook[0]  "thruput (bit/sec)"  ETV
vector 362  University.mainR.ppp[1].outputHook[0]  packet/sec  ETV
vector 379  University.profLaptop.ppp[0].inputHook[0]  "thruput (bit/sec)"  ETV
vector 380  University.profLaptop.ppp[0].inputHook[0]  packet/sec  ETV
vector 385  University.CCTV.eth[0].outputHook[0]  "thruput (bit/sec)"  ETV
vector 386  University.CCTV.eth[0].outputHook[0]  packet/sec  ETV
vector 351  University.remoteR.eth[1].inputHook[0]  "thruput (bit/sec)"  ETV
vector 352  University.remoteR.eth[1].inputHook[0]  packet/sec  ETV
vector 353  University.remoteR.ppp[0].outputHook[0]  "thruput (bit/sec)"  ETV
vector 354  University.remoteR.ppp[0].outputHook[0]  packet/sec  ETV
vector 529  University.whostVideoConf.wlan[0].outputHook[0]  "thruput (bit/sec)"  ETV
vector 530  University.whostVideoConf.wlan[0].outputHook[0]  packet/sec  ETV
vector 551  University.accessPoint.wlan[0].inputHook[0]  "thruput (bit/sec)"  ETV
vector 552  University.accessPoint.wlan[0].inputHook[0]  packet/sec  ETV
vector 559  University.accessPoint.eth[0].outputHook[0]  "thruput (bit/sec)"  ETV
vector 560  University.accessPoint.eth[0].outputHook[0]  packet/sec  ETV
vector 347  University.remoteR.eth[0].inputHook[0]  "thruput (bit/sec)"  ETV
vector 348  University.remoteR.eth[0].inputHook[0]  packet/sec  ETV
vector 188  University.whttpStudents[4].tcpApp[0]  numActiveSessions:vector  ETV
attr interpolationmode  sample-hold
attr source  sum(connect)
attr title  "number of active sessions, vector"
vector 365  University.mainR.ppp[2].outputHook[0]  "thruput (bit/sec)"  ETV
vector 366  University.mainR.ppp[2].outputHook[0]  packet/sec  ETV
vector 383  University.Server.ppp[0].inputHook[0]  "thruput (bit/sec)"  ETV
vector 384  University.Server.ppp[0].inputHook[0]  packet/sec  ETV
vector 381  University.Server.ppp[0].outputHook[0]  "thruput (bit/sec)"  ETV
vector 382  University.Server.ppp[0].outputHook[0]  packet/sec  ETV
vector 367  University.mainR.ppp[2].inputHook[0]  "thruput (bit/sec)"  ETV
vector 368  University.mainR.ppp[2].inputHook[0]  packet/sec  ETV
vector 164  University.whttpStudents[2].tcpApp[0]  numActiveSessions:vector  ETV
attr interpolationmode  sample-hold
attr source  sum(connect)
attr title  "number of active sessions, vector"
vector 345  University.remoteR.eth[0].outputHook[0]  "thruput (bit/sec)"  ETV
vector 346  University.remoteR.eth[0].outputHook[0]  packet/sec  ETV
vector 561  University.accessPoint.eth[0].inputHook[0]  "thruput (bit/sec)"  ETV
vector 562  University.accessPoint.eth[0].inputHook[0]  packet/sec  ETV
vector 549  University.accessPoint.wlan[0].outputHook[0]  "thruput (bit/sec)"  ETV
vector 550  University.accessPoint.wlan[0].outputHook[0]  packet/sec  ETV
vector 511  University.whttpStudents[12].wlan[0].inputHook[0]  "thruput (bit/sec)"  ETV
vector 512  University.whttpStudents[12].wlan[0].inputHook[0]  packet/sec  ETV
vector 501  University.whttpStudents[11].wlan[0].inputHook[0]  "thruput (bit/sec)"  ETV
vector 502  University.whttpStudents[11].wlan[0].inputHook[0]  packet/sec  ETV
vector 531  University.whostVideoConf.wlan[0].inputHook[0]  "thruput (bit/sec)"  ETV
vector 532  University.whostVideoConf.wlan[0].inputHook[0]  packet/sec  ETV
vector 471  University.whttpStudents[8].wlan[0].inputHook[0]  "thruput (bit/sec)"  ETV
vector 472  University.whttpStudents[8].wlan[0].inputHook[0]  packet/sec  ETV
vector 541  University.whostFTP.wlan[0].inputHook[0]  "thruput (bit/sec)"  ETV
vector 542  University.whostFTP.wlan[0].inputHook[0]  packet/sec  ETV
vector 521  University.whttpStudents[13].wlan[0].inputHook[0]  "thruput (bit/sec)"  ETV
vector 522  University.whttpStudents[13].wlan[0].inputHook[0]  packet/sec  ETV
vector 441  University.whttpStudents[5].wlan[0].inputHook[0]  "thruput (bit/sec)"  ETV
vector 442  University.whttpStudents[5].wlan[0].inputHook[0]  packet/sec  ETV
vector 451  University.whttpStudents[6].wlan[0].inputHook[0]  "thruput (bit/sec)"  ETV
vector 452  University.whttpStudents[6].wlan[0].inputHook[0]  packet/sec  ETV
vector 401  University.whttpStudents[1].wlan[0].inputHook[0]  "thruput (bit/sec)"  ETV
vector 402  University.whttpStudents[1].wlan[0].inputHook[0]  packet/sec  ETV
vector 431  University.whttpStudents[4].wlan[0].inputHook[0]  "thruput (bit/sec)"  ETV
vector 432  University.whttpStudents[4].wlan[0].inputHook[0]  packet/sec  ETV
vector 421  University.whttpStudents[3].wlan[0].inputHook[0]  "thruput (bit/sec)"  ETV
vector 422  University.whttpStudents[3].wlan[0].inputHook[0]  packet/sec  ETV
vector 491  University.whttpStudents[10].wlan[0].inputHook[0]  "thruput (bit/sec)"  ETV
vector 492  University.whttpStudents[10].wlan[0].inputHook[0]  packet/sec  ETV
vector 391  University.whttpStudents[0].wlan[0].inputHook[0]  "thruput (bit/sec)"  ETV
vector 392  University.whttpStudents[0].wlan[0].inputHook[0]  packet/sec  ETV
vector 461  University.whttpStudents[7].wlan[0].inputHook[0]  "thruput (bit/sec)"  ETV
vector 462  University.whttpStudents[7].wlan[0].inputHook[0]  packet/sec  ETV
vector 481  University.whttpStudents[9].wlan[0].inputHook[0]  "thruput (bit/sec)"  ETV
vector 482  University.whttpStudents[9].wlan[0].inputHook[0]  packet/sec  ETV
vector 411  University.whttpStudents[2].wlan[0].inputHook[0]  "thruput (bit/sec)"  ETV
vector 412  University.whttpStudents[2].wlan[0].inputHook[0]  packet/sec  ETV
vector 439  University.whttpStudents[5].wlan[0].outputHook[0]  "thruput (bit/sec)"  ETV
vector 440  University.whttpStudents[5].wlan[0].outputHook[0]  packet/sec  ETV
vector 429  University.whttpStudents[4].wlan[0].outputHook[0]  "thruput (bit/sec)"  ETV
vector 430  University.whttpStudents[4].wlan[0].outputHook[0]  packet/sec  ETV
vector 409  University.whttpStudents[2].wlan[0].outputHook[0]  "thruput (bit/sec)"  ETV
vector 410  University.whttpStudents[2].wlan[0].outputHook[0]  packet/sec  ETV
vector 479  University.whttpStudents[9].wlan[0].outputHook[0]  "thruput (bit/sec)"  ETV
vector 480  University.whttpStudents[9].wlan[0].outputHook[0]  packet/sec  ETV
vector 419  University.whttpStudents[3].wlan[0].outputHook[0]  "thruput (bit/sec)"  ETV
vector 420  University.whttpStudents[3].wlan[0].outputHook[0]  packet/sec  ETV
vector 260  University.whttpStudents[10].tcpApp[0]  numActiveSessions:vector  ETV
attr interpolationmode  sample-hold
attr source  sum(connect)
attr title  "number of active sessions, vector"
vector 236  University.whttpStudents[8].tcpApp[0]  numActiveSessions:vector  ETV
attr interpolationmode  sample-hold
attr source  sum(connect)
attr title  "number of active sessions, vector"
vector 489  University.whttpStudents[10].wlan[0].outputHook[0]  "thruput (bit/sec)"  ETV
vector 490  University.whttpStudents[10].wlan[0].outputHook[0]  packet/sec  ETV
vector 296  University.whttpStudents[13].tcpApp[0]  numActiveSessions:vector  ETV
attr interpolationmode  sample-hold
attr source  sum(connect)
attr title  "number of active sessions, vector"
vector 469  University.whttpStudents[8].wlan[0].outputHook[0]  "thruput (bit/sec)"  ETV
vector 470  University.whttpStudents[8].wlan[0].outputHook[0]  packet/sec  ETV
vector 284  University.whttpStudents[12].tcpApp[0]  numActiveSessions:vector  ETV
attr interpolationmode  sample-hold
attr source  sum(connect)
attr title  "number of active sessions, vector"
vector 519  University.whttpStudents[13].wlan[0].outputHook[0]  "thruput (bit/sec)"  ETV
vector 520  University.whttpStudents[13].wlan[0].outputHook[0]  packet/sec  ETV
vector 140  University.whttpStudents[0].tcpApp[0]  numActiveSessions:vector  ETV
attr interpolationmode  sample-hold
attr source  sum(connect)
attr title  "number of active sessions, vector"
vector 138  University.whttpStudents[0].tcpApp[0]  sentPk:vector(packetBytes)  ETV
attr interpolationmode  none
attr source  sentPk
attr title  "packets sent, vector(packetBytes)"
vector 101  University.Server.tcpApp[0]  rcvdPk:vector(packetBytes)  ETV
attr interpolationmode  none
attr source  rcvdPk
attr title  "packets received, vector(packetBytes)"
vector 103  University.Server.tcpApp[0]  endToEndDelay:vector  ETV
attr interpolationmode  none
attr source  messageAge(rcvdPk)
attr title  "end-to-end delay, vector"
attr unit  s
vector 102  University.Server.tcpApp[0]  sentPk:vector(packetBytes)  ETV
attr interpolationmode  none
attr source  sentPk
attr title  "packets sent, vector(packetBytes)"
vector 137  University.whttpStudents[0].tcpApp[0]  rcvdPk:vector(packetBytes)  ETV
attr interpolationmode  none
attr source  rcvdPk
attr title  "packets received, vector(packetBytes)"
vector 139  University.whttpStudents[0].tcpApp[0]  endToEndDelay:vector  ETV
attr interpolationmode  none
attr source  messageAge(rcvdPk)
attr title  "end-to-end delay, vector"
attr unit  s
vector 509  University.whttpStudents[12].wlan[0].outputHook[0]  "thruput (bit/sec)"  ETV
vector 510  University.whttpStudents[12].wlan[0].outputHook[0]  packet/sec  ETV
vector 539  University.whostFTP.wlan[0].outputHook[0]  "thruput (bit/sec)"  ETV
vector 540  University.whostFTP.wlan[0].outputHook[0]  packet/sec  ETV
vector 399  University.whttpStudents[1].wlan[0].outputHook[0]  "thruput (bit/sec)"  ETV
vector 400  University.whttpStudents[1].wlan[0].outputHook[0]  packet/sec  ETV
vector 389  University.whttpStudents[0].wlan[0].outputHook[0]  "thruput (bit/sec)"  ETV
vector 390  University.whttpStudents[0].wlan[0].outputHook[0]  packet/sec  ETV
vector 357  University.mainR.ppp[0].outputHook[0]  "thruput (bit/sec)"  ETV
vector 358  University.mainR.ppp[0].outputHook[0]  packet/sec  ETV
vector 355  University.remoteR.ppp[0].inputHook[0]  "thruput (bit/sec)"  ETV
vector 356  University.remoteR.ppp[0].inputHook[0]  packet/sec  ETV
vector 272  University.whttpStudents[11].tcpApp[0]  numActiveSessions:vector  ETV
attr interpolationmode  sample-hold
attr source  sum(connect)
attr title  "number of active sessions, vector"
vector 212  University.whttpStudents[6].tcpApp[0]  numActiveSessions:vector  ETV
attr interpolationmode  sample-hold
attr source  sum(connect)
attr title  "number of active sessions, vector"
vector 499  University.whttpStudents[11].wlan[0].outputHook[0]  "thruput (bit/sec)"  ETV
vector 500  University.whttpStudents[11].wlan[0].outputHook[0]  packet/sec  ETV
vector 449  University.whttpStudents[6].wlan[0].outputHook[0]  "thruput (bit/sec)"  ETV
vector 450  University.whttpStudents[6].wlan[0].outputHook[0]  packet/sec  ETV
vector 224  University.whttpStudents[7].tcpApp[0]  numActiveSessions:vector  ETV
attr interpolationmode  sample-hold
attr source  sum(connect)
attr title  "number of active sessions, vector"
vector 459  University.whttpStudents[7].wlan[0].outputHook[0]  "thruput (bit/sec)"  ETV
vector 460  University.whttpStudents[7].wlan[0].outputHook[0]  packet/sec  ETV
vector 324  University.whostFTP.tcpApp[0]  numActiveSessions:vector  ETV
attr interpolationmode  sample-hold
attr source  sum(connect)
attr title  "number of active sessions, vector"
vector 152  University.whttpStudents[1].tcpApp[0]  numActiveSessions:vector  ETV
attr interpolationmode  sample-hold
attr source  sum(connect)
attr title  "number of active sessions, vector"
vector 176  University.whttpStudents[3].tcpApp[0]  numActiveSessions:vector  ETV
attr interpolationmode  sample-hold
attr source  sum(connect)
attr title  "number of active sessions, vector"
vector 248  University.whttpStudents[9].tcpApp[0]  numActiveSessions:vector  ETV
attr interpolationmode  sample-hold
attr source  sum(connect)
attr title  "number of active sessions, vector"
vector 349  University.remoteR.eth[1].outputHook[0]  "thruput (bit/sec)"  ETV
vector 350  University.remoteR.eth[1].outputHook[0]  packet/sec  ETV
vector 387  University.CCTV.eth[0].inputHook[0]  "thruput (bit/sec)"  ETV
vector 388  University.CCTV.eth[0].inputHook[0]  packet/sec  ETV
64	14410 2882118 132285 61078793 5.007195877145 3253.567195877145 81215 10240 10240 831641600 8516009984000
65	2896528 3613052 132285 61078793 5.007195877145 3253.567195877145 81215 0.017080129996 0.017148129995 1387.195218775 23.694030264737
82	6509580 2800573 132297 61078857 5.013966590985 3253.573966590985 81215 1400 1400 113701000 159181400000
83	9310153 2800875 132298 61078433 5.019965214626 3253.539965214626 81214 1400 1400 113699600 159179440000
84	12111028 3612433 132297 61078432 5.013966590985 3253.533966590985 81214 0.016345614493 0.095594233985 1331.7848848884 21.871884389545
101	15723461 5475 271095 60952486 18.729437626078 3249.447575900821 169 1 1 169 169
102	15728936 6345 271095 60952486 18.729437626078 3249.447575900821 169 1385 9004068 124835591 2.2906802813872e+14
103	15735281 7671 271095 60952486 18.729437626078 3249.447575900821 169 0.011122598905 0.017240581275 2.074636740726 0.026142196336091
119	15742952 2963304 132318 61078453 5.030115747149 3253.550115747149 81214 10240 10240 831631360 8515905126400
137	18706256 6341 316832 61041142 19.062064266518 3249.918774875434 169 1385 9004068 124835591 2.2906802813872e+14
138	18712597 5473 270612 60951853 18.718288027173 3249.435355729299 169 1 1 169 169
139	18718070 7648 316832 61041142 19.062064266518 3249.918774875434 169 0.036211204296 11.830229188154 474.58330900599 2621.7082189542
140	18725718 10940 270032 61041142 18.683875033895 3249.918774875434 338 0 1 169 169
152	18736658 1131 1735118 59901676 86.348820513934 3175.318069610883 34 1 34 595 13685
164	18737789 1190 163657 60929875 8.132375761753 3247.298771646048 36 1 36 666 16206
176	18738979 1197 1785193 60762415 91.437984405718 3230.044432436749 36 1 36 666 16206
188	18740176 1150 146148 60217785 6.358224296448 3187.20103278596 35 1 35 630 14910
200	18741326 1259 139199 60944397 5.690577289131 3248.782088954305 38 1 38 741 19019
212	18742585 1157 908298 59873783 45.228017348526 3172.497191211007 35 1 35 630 14910
224	18743742 1296 970870 60938942 51.585394605397 3248.236802452371 39 1 39 780 20540
236	18745038 1192 210280 59938190 12.756134176033 3178.968881249947 36 1 36 666 16206
248	18746230 1229 2048297 60922409 102.075198357835 3246.535674523199 37 1 37 703 17575
260	18747459 1190 201596 59882260 11.905714180267 3173.353229031163 36 1 36 666 16206
272	18748649 1194 886669 60831253 43.051543158492 3237.138169408079 36 1 36 666 16206
284	18749843 1152 260527 59896790 17.784071746522 3174.83623380286 35 1 35 630 14910
296	18750995 1193 235649 58845977 15.306789382288 3110.385016176265 36 1 36 666 16206
306	18752188 2882091 132412 61078547 5.037620976492 3253.557620976492 81214 1400 1400 113699600 159179440000
324	21634279 873 1626193 60713905 75 3225 43 1 43 946 27434
345	21635152 34637 163743 61053772 5.690649121364 3249.782594169979 796 5.5508643115439 11123033.480174 841777391.37411 4.0434823227151e+15
346	21669789 33887 163743 61053772 5.690649121364 3249.782594169979 796 0.024780644247964 927.93071450727 70650.204862543 28311775.300432
347	21703676 123624 143054 61073343 5.038009924319 3251.998009924319 3245 277620.13808061 573364.58329074 955384715.07833 2.8412867119707e+14
348	21827300 111633 143054 61073343 5.038009924319 3251.998009924319 3245 25 924.62036182694 170098.60613999 36649995.545875
349	21938933 1211 5060564 60869767 120.030121557149 3121.030121557149 26 1.8660446517827 1.8660446517827 48.517160946351 90.535188703621
350	21940144 1289 5060564 60869767 120.030121557149 3121.030121557149 26 0.0083305564811729 0.0083305564811729 0.2165944685105 0.0018043524534363
351	21941433 125040 142889 61073548 5.030237877149 3252.030483957147 3248 2077600 2089367.2027084 6748074334.1173 1.4019860874913e+16
352	22066473 112064 142889 61073548 5.030237877149 3252.030483957147 3248 175 176 568428.95669434 99480163.757184
353	22178537 125039 142891 61073550 5.030237877149 3252.030483957147 3248 2363200 2651520 7704426815.8359 1.8278230545082e+16
354	22303576 112071 142891 61073550 5.030237877149 3252.030483957147 3248 200 1101 738832.95053134 196614989.10992
355	22415647 24303 342473 60951775 18.717944316296 3206.968433002347 573 10.139351821921 11122809.496898 811728462.58914 3.9937420468665e+15
356	22439950 23327 342473 60951775 18.717944316296 3206.968433002347 573 0.031685474443505 926.93078916836 67950.820599496 27937803.985248
357	22463277 24199 342456 60951674 18.70790764963 3206.958396335681 573 10.139352678642 11123291.470204 924333597.64198 5.422279434383e+15
358	22487476 23154 342456 60951674 18.70790764963 3206.958396335681 573 0.031685477120756 926.97095491039 77343.630605087 37906525.568692
359	22510630 125023 142759 61073411 5.001242543815 3252.002247210481 3248 2363200 2651904 7704413016.1865 1.8278156740293e+16
360	22635653 112047 142759 61073411 5.001242543815 3252.002247210481 3248 200 1102 738831.79824843 196533014.93094
361	22747700 121760 142853 61073495 5.024965214626 3252.024965214626 3248 296800 296800 964006400 2.8611709952e+14
362	22869460 108768 142853 61073495 5.024965214626 3252.024965214626 3248 50 50 162400 8120000
363	22978228 121760 142850 61073492 5.024965214626 3252.024965214626 3248 285600 285600 927628800 2.6493078528e+14
364	23099988 108768 142850 61073492 5.024965214626 3252.024965214626 3248 25 25 81200 2030000
365	23208756 79085 146876 61054310 5.249003257651 3249.794787710221 1778 63.486554199343 288640 26689870.032672 2953155206993.9
366	23287841 78434 146876 61054310 5.249003257651 3249.794787710221 1778 0.19839548187295 901 81863.426527439 28674009.582731
367	23366275 79140 146902 61054411 5.262922723866 3249.945134206376 1767 79.634654425957 11028103.999037 1034638067.1569 5.4739802096442e+15
368	23445415 78413 146902 61054411 5.262922723866 3249.945134206376 1767 0.2262348137101 921.91774035278 89609.601917496 38578436.582769
369	23523828 125024 142761 61073413 5.001242543815 3252.002247210481 3248 2077575.8585685 2087526.9882841 6748054702.8469 1.4019779123335e+16
370	23648852 112040 142761 61073413 5.001242543815 3252.002247210481 3248 174.99796652363 175.82539717554 568400.8233637 99470288.858579
375	23760892 125024 142766 61073418 5.001242543815 3252.002247210481 3248 2077575.8585685 2087526.9882841 6748054702.8469 1.4019779123335e+16
376	23885916 112040 142766 61073418 5.001242543815 3252.002247210481 3248 174.99796652363 175.82539717554 568400.8233637 99470288.858579
377	23997956 121760 142845 61073487 5.019965214626 3252.019965214626 3248 285600 285600 927628800 2.6493078528e+14
378	24119716 108768 142845 61073487 5.019965214626 3252.019965214626 3248 25 25 81200 2030000
379	24228484 121760 142858 61073500 5.029965214626 3252.029965214626 3248 296800 296800 964006400 2.8611709952e+14
380	24350244 108768 142858 61073500 5.029965214626 3252.029965214626 3248 50 50 162400 8120000
381	24459012 79047 146885 61054303 5.249320507995 3249.931531990505 1765 79.634654425957 12178325.314078 1037955851.7025 5.5543557715045e+15
382	24538059 78305 146885 61054303 5.249320507995 3249.931531990505 1765 0.2262348137101 1015.3281091204 89880.303623576 39132725.339625
383	24616364 79118 146881 61054315 5.249320507995 3249.795104320565 1778 63.486546138258 288640 26689875.714501 2953156900213.3
384	24695482 78476 146881 61054315 5.249320507995 3249.795104320565 1778 0.19839545668206 901 81863.444214672 28674026.015055
385	24773958 125008 142865 61073507 5.030115747149 3252.030115747149 3248 2077600 2077824 6748050848 1.4019763008484e+16
386	24898966 112016 142865 61073507 5.030115747149 3252.030115747149 3248 175 176 568427 99479477
387	25010982 1211 5060571 60869774 120.030127367149 3121.030127367149 26 1.8660446517827 1.8660446517827 48.517160946351 90.535188703621
388	25012193 1289 5060571 60869774 120.030127367149 3121.030127367149 26 0.0083305564811729 0.0083305564811729 0.2165944685105 0.0018043524534363
389	25013482 24110 341952 60950989 18.683875033895 3206.934363719946 575 5.0725832456678 287724.62005515 21559014.015935 2829836016247.9
390	25037592 23490 341952 60950989 18.683875033895 3206.934363719946 575 0.015851822642712 899.13943767235 67351.741605314 27618362.210909
391	25061082 34710 163920 61053959 5.691737344218 3249.783328468327 797 5.55100354994 10786211.847069 840057272.03132 4.0123190871609e+15
392	25095792 33970 163920 61053959 5.691737344218 3249.783328468327 797 0.024781265847947 899.71775197127 70508.296918593 28094823.055746
399	25129762 6408 338983 60668351 9.201173173913 3196.318069610883 172 4.8400946595828 202.66666666667 9162.5648827456 928118.15763176
400	25136170 8263 338983 60668351 9.201173173913 3196.318069610883 172 0.012604413175997 0.66666666666667 25.091082812434 7.5323872309546
401	25144433 13257 163894 61053933 5.691737338203 3248.783249003377 286 1.8663345727265 642.09445564394 18919.737013186 2806795.1215306
402	25157690 13621 163894 61053933 5.691737338203 3248.783249003377 286 0.0083318507711004 2.8664931055533 84.463111666008 55.938997160607
409	25171311 6563 193693 61046318 8.132375761753 3247.298771646048 176 4.3276872203761 202.66666666667 9686.017719684 1008353.7392294
410	25177874 8429 193693 61046318 8.132375761753 3247.298771646048 176 0.011270018803063 0.66666666666667 26.801750540882 8.366473389916
411	25186303 13258 163992 61053947 5.691737342761 3248.783249007935 286 1.8663345727265 642.09445564394 18919.932536779 2807025.267516
412	25199561 13619 163992 61053947 5.691737342761 3248.783249007935 286 0.0083318507711004 2.8664931055533 84.463984539194 55.943583934868
419	25213180 6736 195094 61053690 5.238175851133 3239.044432436749 182 4.8438765726561 202.66666666667 9840.4819746517 1022881.9796602
420	25219916 8740 195094 61053690 5.238175851133 3239.044432436749 182 0.012614261907959 0.66666666666667 27.063382055105 8.4900724467469
421	25228656 13262 163906 61054029 5.691737340811 3248.783249005985 286 1.8663345727265 642.09445564394 18919.968833389 2807035.0020655
422	25241918 13626 163906 61054029 5.691737340811 3248.783249005985 286 0.0083318507711004 2.8664931055533 84.464146577631 55.943777942952
429	25255544 6403 176546 60783208 6.358224296448 3208.20103278596 174 3.9010844630905 202.66666666667 9595.5461926869 1040016.5699942
430	25261947 8307 176546 60783208 6.358224296448 3208.20103278596 174 0.010159074122631 0.66666666666667 26.652386534206 8.9043376629809
431	25270254 13238 163900 61053939 5.691737339968 3248.783249005142 286 1.8663345727265 642.09445564394 18919.95359955 2807024.4273425
432	25283492 13603 163900 61053939 5.691737339968 3248.783249005142 286 0.0083318507711004 2.8664931055533 84.464078569418 55.94356719034
439	25297095 6925 169631 61061486 5.690577289131 3248.782088954305 186 4.8225360126763 202.66666666667 10225.063258174 1078517.3239227
440	25304020 8922 169631 61061486 5.690577289131 3248.782088954305 186 0.012558687533011 0.66666666666667 28.229386172529 9.0168884734318
441	25312942 13248 163882 61053921 5.691839333597 3248.783368998771 286 1.8663345727265 642.09445564394 18919.970265491 2807039.6379389
442	25326190 13618 163882 61053921 5.691839333597 3248.783368998771 286 0.0083318507711004 2.8664931055533 84.46415297094 55.943870335199
449	25339808 6470 938171 60640389 45.228017348526 3193.497191211007 174 5.0949552828038 202.66666666667 9601.3032262717 1039711.5856233
450	25346278 8334 938171 60640389 45.228017348526 3193.497191211007 174 0.013268112715635 0.66666666666667 26.685025931754 8.9011175103956
451	25354612 13259 163888 61053927 5.691737337981 3248.783249003155 286 1.8663345727265 642.09445564394 18919.955385248 2807030.3226981
452	25367871 13629 163888 61053927 5.691737337981 3248.783249003155 286 0.0083318507711004 2.8664931055533 84.464086541286 55.943684683874
459	25381500 7073 1000706 61056018 51.585394605397 3248.236802452371 191 5.7049547633479 202.66666666667 10451.834928545 1084684.5024636
460	25388573 9180 1000706 61056018 51.585394605397 3248.236802452371 191 0.014856653029552 0.66666666666667 28.744133735554 8.951504935042
461	25397753 13240 163926 61053965 5.691737345888 3248.783249011062 286 1.8663345727265 642.0516654913 18919.913555978 2806968.1217949
462	25410993 13601 163926 61053965 5.691737345888 3248.783249011062 286 0.0083318507711004 2.8663020780862 84.463899803474 55.942445029395
469	25424594 6613 240718 60703464 12.756134176033 3199.968881249947 179 5.1214347507097 202.66666666667 9785.6623698681 1040683.9206713
470	25431207 8587 240718 60703464 12.756134176033 3199.968881249947 179 0.013337069663307 0.66666666666667 27.033064616434 8.7668273660953
471	25439794 13258 163864 61053903 5.691737330264 3248.783248995438 286 1.8663345727265 642.09445564394 18919.706573981 2806787.6695358
472	25453052 13621 163864 61053903 5.691737330264 3248.783248995438 286 0.0083318507711004 2.8664931055533 84.462975776701 55.938848643492
479	25466673 6825 194428 60954448 5.192858821073 3246.535674523199 185 5.2597852016866 202.66666666667 9948.4133129391 1015701.9778344
480	25473498 8872 194428 60954448 5.192858821073 3246.535674523199 185 0.013697357296059 0.66666666666667 27.236718126082 8.2792562769749
481	25482370 13258 163932 61053971 5.691737347371 3248.783249012545 286 1.8663345727265 642.09445564394 18919.938520993 2807023.1534327
482	25495628 13626 163932 61053971 5.691737347371 3248.783249012545 286 0.0083318507711004 2.8664931055533 84.464011254431 55.943541801513
489	25509254 6575 231633 60648683 11.905714180267 3194.353229031163 179 3.1212032977985 202.66666666667 9531.2424290458 941075.82070268
490	25515829 8569 231633 60648683 11.905714180267 3194.353229031163 179 0.0081281335880169 0.66666666666667 25.878432478924 7.4206016599815
491	25524398 13257 163914 61053953 5.691737343433 3248.783249008607 286 1.8663345727265 642.09445564394 18919.991419362 2807041.8367831
492	25537655 13624 163914 61053953 5.691737343433 3248.783249008607 286 0.0083318507711004 2.8664931055533 84.464247407866 55.943914157827
499	25551279 6591 916886 60918393 43.051543158492 3240.138169408079 177 4.4733117726778 202.66666666667 9946.0253994447 1109926.0392973
500	25557870 8493 916886 60918393 43.051543158492 3240.138169408079 177 0.011649249408015 0.66666666666667 27.837359309765 9.710080156585
501	25566363 13256 163852 61053891 5.691737325324 3248.783248990498 286 1.8663345727265 642.09445564394 18920.015241405 2807053.9796406
502	25579619 13623 163852 61053891 5.691737325324 3248.783248990498 286 0.0083318507711004 2.8664931055533 84.464353756274 55.944156163118
509	25593242 6414 334321 60663031 17.784071746522 3195.83623380286 174 2.8686410377248 202.66666666667 9295.6992289971 921963.84226011
510	25599656 8313 334321 60663031 17.784071746522 3195.83623380286 174 0.0074704193690751 0.66666666666667 25.30922429048 7.3103509663164
511	25607969 13241 163846 61053885 5.691737322855 3248.783248988029 286 1.8663345727265 642.09445564394 18919.990733023 2807064.0555684
512	25621210 13608 163846 61053885 5.691737322855 3248.783248988029 286 0.0083318507711004 2.8664931055533 84.464244343854 55.944356974816
519	25634818 6628 266085 59707226 15.306789382288 3131.385016176265 179 4.1852103985613 202.66666666667 9810.6890967211 1041318.2217913
520	25641446 8587 266085 59707226 15.306789382288 3131.385016176265 179 0.01089898541292 0.66666666666667 27.11591695812 8.7735057340841
521	25650033 13252 163876 61053915 5.691737333464 3248.783248998638 286 1.8663345727265 642.09445564394 18919.992418896 2807050.0795529
522	25663285 13618 163876 61053915 5.691737333464 3248.783248998638 286 0.0083318507711004 2.8664931055533 84.464251870072 55.944078434966