file 44673141 1471641294                                        
version 2
run _14to17on-1-20160819-23:09:37-12913
attr configname _14to17on
attr datetime 20160819-23:09:37
attr experiment _14to17on
attr inifile omnetpp.ini
attr iterationvars $0=14
attr iterationvars2 "$0=14, $repetition=1"
attr measurement $0=14
attr network University
attr processid 12913
attr repetition 1
attr replication #1
attr resultdir results
attr runnumber 1
attr seedset 1

vector 82  University.profLaptop.udpApp[0]  rcvdPk:vector(packetBytes)  ETV
attr interpolationmode  none
attr source  rcvdPk
attr title  "packets received, vector(packetBytes)"
vector 84  University.profLaptop.udpApp[0]  rcvdPkLifetime:vector  ETV
attr interpolationmode  none
attr source  messageAge(rcvdPk)
attr title  "received packet lifetime, vector"
attr unit  s
vector 64  University.ccTVMonitoringHost.udpApp[0]  rcvdPk:vector(packetBytes)  ETV
attr interpolationmode  none
attr source  rcvdPk
attr title  "packets received, vector(packetBytes)"
vector 65  University.ccTVMonitoringHost.udpApp[0]  endToEndDelay:vector  ETV
attr interpolationmode  none
attr source  messageAge(rcvdPk)
attr title  "end-to-end delay, vector"
attr unit  s
vector 306  University.whostVideoConf.udpApp[0]  sentPk:vector(packetBytes)  ETV
attr interpolationmode  none
attr source  sentPk
attr title  "packets sent, vector(packetBytes)"
vector 83  University.profLaptop.udpApp[0]  sentPk:vector(packetBytes)  ETV
attr interpolationmode  none
attr source  sentPk
attr title  "packets sent, vector(packetBytes)"
vector 119  University.CCTV.udpApp[0]  sentPk:vector(packetBytes)  ETV
attr interpolationmode  none
attr source  sentPk
attr title  "packets sent, vector(packetBytes)"
vector 140  University.whttpStudents[0].tcpApp[0]  numActiveSessions:vector  ETV
attr interpolationmode  sample-hold
attr source  sum(connect)
attr title  "number of active sessions, vector"
vector 138  University.whttpStudents[0].tcpApp[0]  sentPk:vector(packetBytes)  ETV
attr interpolationmode  none
attr source  sentPk
attr title  "packets sent, vector(packetBytes)"
vector 200  University.whttpStudents[5].tcpApp[0]  numActiveSessions:vector  ETV
attr interpolationmode  sample-hold
attr source  sum(connect)
attr title  "number of active sessions, vector"
vector 101  University.Server.tcpApp[0]  rcvdPk:vector(packetBytes)  ETV
attr interpolationmode  none
attr source  rcvdPk
attr title  "packets received, vector(packetBytes)"
vector 103  University.Server.tcpApp[0]  endToEndDelay:vector  ETV
attr interpolationmode  none
attr source  messageAge(rcvdPk)
attr title  "end-to-end delay, vector"
attr unit  s
vector 102  University.Server.tcpApp[0]  sentPk:vector(packetBytes)  ETV
attr interpolationmode  none
attr source  sentPk
attr title  "packets sent, vector(packetBytes)"
vector 363  University.mainR.ppp[1].inputHook[0]  "thruput (bit/sec)"  ETV
vector 364  University.mainR.ppp[1].inputHook[0]  packet/sec  ETV
vector 361  University.mainR.ppp[1].outputHook[0]  "thruput (bit/sec)"  ETV
vector 362  University.mainR.ppp[1].outputHook[0]  packet/sec  ETV
vector 379  University.profLaptop.ppp[0].inputHook[0]  "thruput (bit/sec)"  ETV
vector 380  University.profLaptop.ppp[0].inputHook[0]  packet/sec  ETV
vector 359  University.mainR.ppp[0].inputHook[0]  "thruput (bit/sec)"  ETV
vector 360  University.mainR.ppp[0].inputHook[0]  packet/sec  ETV
vector 369  University.mainR.ppp[3].outputHook[0]  "thruput (bit/sec)"  ETV
vector 370  University.mainR.ppp[3].outputHook[0]  packet/sec  ETV
vector 375  University.ccTVMonitoringHost.ppp[0].inputHook[0]  "thruput (bit/sec)"  ETV
vector 376  University.ccTVMonitoringHost.ppp[0].inputHook[0]  packet/sec  ETV
vector 529  University.whostVideoConf.wlan[0].outputHook[0]  "thruput (bit/sec)"  ETV
vector 530  University.whostVideoConf.wlan[0].outputHook[0]  packet/sec  ETV
vector 551  University.accessPoint.wlan[0].inputHook[0]  "thruput (bit/sec)"  ETV
vector 552  University.accessPoint.wlan[0].inputHook[0]  packet/sec  ETV
vector 559  University.accessPoint.eth[0].outputHook[0]  "thruput (bit/sec)"  ETV
vector 560  University.accessPoint.eth[0].outputHook[0]  packet/sec  ETV
vector 347  University.remoteR.eth[0].inputHook[0]  "thruput (bit/sec)"  ETV
vector 348  University.remoteR.eth[0].inputHook[0]  packet/sec  ETV
vector 353  University.remoteR.ppp[0].outputHook[0]  "thruput (bit/sec)"  ETV
vector 354  University.remoteR.ppp[0].outputHook[0]  packet/sec  ETV
vector 377  University.profLaptop.ppp[0].outputHook[0]  "thruput (bit/sec)"  ETV
vector 378  University.profLaptop.ppp[0].outputHook[0]  packet/sec  ETV
vector 385  University.CCTV.eth[0].outputHook[0]  "thruput (bit/sec)"  ETV
vector 386  University.CCTV.eth[0].outputHook[0]  packet/sec  ETV
vector 351  University.remoteR.eth[1].inputHook[0]  "thruput (bit/sec)"  ETV
vector 352  University.remoteR.eth[1].inputHook[0]  packet/sec  ETV
vector 345  University.remoteR.eth[0].outputHook[0]  "thruput (bit/sec)"  ETV
vector 346  University.remoteR.eth[0].outputHook[0]  packet/sec  ETV
vector 561  University.accessPoint.eth[0].inputHook[0]  "thruput (bit/sec)"  ETV
vector 562  University.accessPoint.eth[0].inputHook[0]  packet/sec  ETV
vector 549  University.accessPoint.wlan[0].outputHook[0]  "thruput (bit/sec)"  ETV
vector 550  University.accessPoint.wlan[0].outputHook[0]  packet/sec  ETV
vector 391  University.whttpStudents[0].wlan[0].inputHook[0]  "thruput (bit/sec)"  ETV
vector 392  University.whttpStudents[0].wlan[0].inputHook[0]  packet/sec  ETV
vector 389  University.whttpStudents[0].wlan[0].outputHook[0]  "thruput (bit/sec)"  ETV
vector 390  University.whttpStudents[0].wlan[0].outputHook[0]  packet/sec  ETV
vector 365  University.mainR.ppp[2].outputHook[0]  "thruput (bit/sec)"  ETV
vector 366  University.mainR.ppp[2].outputHook[0]  packet/sec  ETV
vector 383  University.Server.ppp[0].inputHook[0]  "thruput (bit/sec)"  ETV
vector 384  University.Server.ppp[0].inputHook[0]  packet/sec  ETV
vector 357  University.mainR.ppp[0].outputHook[0]  "thruput (bit/sec)"  ETV
vector 358  University.mainR.ppp[0].outputHook[0]  packet/sec  ETV
vector 355  University.remoteR.ppp[0].inputHook[0]  "thruput (bit/sec)"  ETV
vector 356  University.remoteR.ppp[0].inputHook[0]  packet/sec  ETV
vector 381  University.Server.ppp[0].outputHook[0]  "thruput (bit/sec)"  ETV
vector 382  University.Server.ppp[0].outputHook[0]  packet/sec  ETV
vector 367  University.mainR.ppp[2].inputHook[0]  "thruput (bit/sec)"  ETV
vector 368  University.mainR.ppp[2].inputHook[0]  packet/sec  ETV
vector 439  University.whttpStudents[5].wlan[0].outputHook[0]  "thruput (bit/sec)"  ETV
vector 440  University.whttpStudents[5].wlan[0].outputHook[0]  packet/sec  ETV
vector 248  University.whttpStudents[9].tcpApp[0]  numActiveSessions:vector  ETV
attr interpolationmode  sample-hold
attr source  sum(connect)
attr title  "number of active sessions, vector"
vector 491  University.whttpStudents[10].wlan[0].inputHook[0]  "thruput (bit/sec)"  ETV
vector 492  University.whttpStudents[10].wlan[0].inputHook[0]  packet/sec  ETV
vector 451  University.whttpStudents[6].wlan[0].inputHook[0]  "thruput (bit/sec)"  ETV
vector 452  University.whttpStudents[6].wlan[0].inputHook[0]  packet/sec  ETV
vector 421  University.whttpStudents[3].wlan[0].inputHook[0]  "thruput (bit/sec)"  ETV
vector 422  University.whttpStudents[3].wlan[0].inputHook[0]  packet/sec  ETV
vector 531  University.whostVideoConf.wlan[0].inputHook[0]  "thruput (bit/sec)"  ETV
vector 532  University.whostVideoConf.wlan[0].inputHook[0]  packet/sec  ETV
vector 441  University.whttpStudents[5].wlan[0].inputHook[0]  "thruput (bit/sec)"  ETV
vector 442  University.whttpStudents[5].wlan[0].inputHook[0]  packet/sec  ETV
vector 521  University.whttpStudents[13].wlan[0].inputHook[0]  "thruput (bit/sec)"  ETV
vector 522  University.whttpStudents[13].wlan[0].inputHook[0]  packet/sec  ETV
vector 511  University.whttpStudents[12].wlan[0].inputHook[0]  "thruput (bit/sec)"  ETV
vector 512  University.whttpStudents[12].wlan[0].inputHook[0]  packet/sec  ETV
vector 461  University.whttpStudents[7].wlan[0].inputHook[0]  "thruput (bit/sec)"  ETV
vector 462  University.whttpStudents[7].wlan[0].inputHook[0]  packet/sec  ETV
vector 411  University.whttpStudents[2].wlan[0].inputHook[0]  "thruput (bit/sec)"  ETV
vector 412  University.whttpStudents[2].wlan[0].inputHook[0]  packet/sec  ETV
vector 431  University.whttpStudents[4].wlan[0].inputHook[0]  "thruput (bit/sec)"  ETV
vector 432  University.whttpStudents[4].wlan[0].inputHook[0]  packet/sec  ETV
vector 471  University.whttpStudents[8].wlan[0].inputHook[0]  "thruput (bit/sec)"  ETV
vector 472  University.whttpStudents[8].wlan[0].inputHook[0]  packet/sec  ETV
vector 501  University.whttpStudents[11].wlan[0].inputHook[0]  "thruput (bit/sec)"  ETV
vector 502  University.whttpStudents[11].wlan[0].inputHook[0]  packet/sec  ETV
vector 541  University.whostFTP.wlan[0].inputHook[0]  "thruput (bit/sec)"  ETV
vector 542  University.whostFTP.wlan[0].inputHook[0]  packet/sec  ETV
vector 401  University.whttpStudents[1].wlan[0].inputHook[0]  "thruput (bit/sec)"  ETV
vector 402  University.whttpStudents[1].wlan[0].inputHook[0]  packet/sec  ETV
vector 481  University.whttpStudents[9].wlan[0].inputHook[0]  "thruput (bit/sec)"  ETV
vector 482  University.whttpStudents[9].wlan[0].inputHook[0]  packet/sec  ETV
vector 489  University.whttpStudents[10].wlan[0].outputHook[0]  "thruput (bit/sec)"  ETV
vector 490  University.whttpStudents[10].wlan[0].outputHook[0]  packet/sec  ETV
vector 188  University.whttpStudents[4].tcpApp[0]  numActiveSessions:vector  ETV
attr interpolationmode  sample-hold
attr source  sum(connect)
attr title  "number of active sessions, vector"
vector 409  University.whttpStudents[2].wlan[0].outputHook[0]  "thruput (bit/sec)"  ETV
vector 410  University.whttpStudents[2].wlan[0].outputHook[0]  packet/sec  ETV
vector 479  University.whttpStudents[9].wlan[0].outputHook[0]  "thruput (bit/sec)"  ETV
vector 480  University.whttpStudents[9].wlan[0].outputHook[0]  packet/sec  ETV
vector 449  University.whttpStudents[6].wlan[0].outputHook[0]  "thruput (bit/sec)"  ETV
vector 450  University.whttpStudents[6].wlan[0].outputHook[0]  packet/sec  ETV
vector 459  University.whttpStudents[7].wlan[0].outputHook[0]  "thruput (bit/sec)"  ETV
vector 460  University.whttpStudents[7].wlan[0].outputHook[0]  packet/sec  ETV
vector 399  University.whttpStudents[1].wlan[0].outputHook[0]  "thruput (bit/sec)"  ETV
vector 400  University.whttpStudents[1].wlan[0].outputHook[0]  packet/sec  ETV
vector 429  University.whttpStudents[4].wlan[0].outputHook[0]  "thruput (bit/sec)"  ETV
vector 430  University.whttpStudents[4].wlan[0].outputHook[0]  packet/sec  ETV
vector 176  University.whttpStudents[3].tcpApp[0]  numActiveSessions:vector  ETV
attr interpolationmode  sample-hold
attr source  sum(connect)
attr title  "number of active sessions, vector"
vector 236  University.whttpStudents[8].tcpApp[0]  numActiveSessions:vector  ETV
attr interpolationmode  sample-hold
attr source  sum(connect)
attr title  "number of active sessions, vector"
vector 419  University.whttpStudents[3].wlan[0].outputHook[0]  "thruput (bit/sec)"  ETV
vector 420  University.whttpStudents[3].wlan[0].outputHook[0]  packet/sec  ETV
vector 469  University.whttpStudents[8].wlan[0].outputHook[0]  "thruput (bit/sec)"  ETV
vector 470  University.whttpStudents[8].wlan[0].outputHook[0]  packet/sec  ETV
vector 539  University.whostFTP.wlan[0].outputHook[0]  "thruput (bit/sec)"  ETV
vector 540  University.whostFTP.wlan[0].outputHook[0]  packet/sec  ETV
vector 519  University.whttpStudents[13].wlan[0].outputHook[0]  "thruput (bit/sec)"  ETV
vector 520  University.whttpStudents[13].wlan[0].outputHook[0]  packet/sec  ETV
vector 272  University.whttpStudents[11].tcpApp[0]  numActiveSessions:vector  ETV
attr interpolationmode  sample-hold
attr source  sum(connect)
attr title  "number of active sessions, vector"
vector 499  University.whttpStudents[11].wlan[0].outputHook[0]  "thruput (bit/sec)"  ETV
vector 500  University.whttpStudents[11].wlan[0].outputHook[0]  packet/sec  ETV
vector 137  University.whttpStudents[0].tcpApp[0]  rcvdPk:vector(packetBytes)  ETV
attr interpolationmode  none
attr source  rcvdPk
attr title  "packets received, vector(packetBytes)"
vector 139  University.whttpStudents[0].tcpApp[0]  endToEndDelay:vector  ETV
attr interpolationmode  none
attr source  messageAge(rcvdPk)
attr title  "end-to-end delay, vector"
attr unit  s
vector 284  University.whttpStudents[12].tcpApp[0]  numActiveSessions:vector  ETV
attr interpolationmode  sample-hold
attr source  sum(connect)
attr title  "number of active sessions, vector"
vector 509  University.whttpStudents[12].wlan[0].outputHook[0]  "thruput (bit/sec)"  ETV
vector 510  University.whttpStudents[12].wlan[0].outputHook[0]  packet/sec  ETV
vector 324  University.whostFTP.tcpApp[0]  numActiveSessions:vector  ETV
attr interpolationmode  sample-hold
attr source  sum(connect)
attr title  "number of active sessions, vector"
vector 212  University.whttpStudents[6].tcpApp[0]  numActiveSessions:vector  ETV
attr interpolationmode  sample-hold
attr source  sum(connect)
attr title  "number of active sessions, vector"
vector 152  University.whttpStudents[1].tcpApp[0]  numActiveSessions:vector  ETV
attr interpolationmode  sample-hold
attr source  sum(connect)
attr title  "number of active sessions, vector"
vector 296  University.whttpStudents[13].tcpApp[0]  numActiveSessions:vector  ETV
attr interpolationmode  sample-hold
attr source  sum(connect)
attr title  "number of active sessions, vector"
vector 260  University.whttpStudents[10].tcpApp[0]  numActiveSessions:vector  ETV
attr interpolationmode  sample-hold
attr source  sum(connect)
attr title  "number of active sessions, vector"
vector 224  University.whttpStudents[7].tcpApp[0]  numActiveSessions:vector  ETV
attr interpolationmode  sample-hold
attr source  sum(connect)
attr title  "number of active sessions, vector"
vector 164  University.whttpStudents[2].tcpApp[0]  numActiveSessions:vector  ETV
attr interpolationmode  sample-hold
attr source  sum(connect)
attr title  "number of active sessions, vector"
vector 349  University.remoteR.eth[1].outputHook[0]  "thruput (bit/sec)"  ETV
vector 350  University.remoteR.eth[1].outputHook[0]  packet/sec  ETV
vector 387  University.CCTV.eth[0].inputHook[0]  "thruput (bit/sec)"  ETV
vector 388  University.CCTV.eth[0].inputHook[0]  packet/sec  ETV
64	14410 2685460 69586 57080602 5.0159338729 3209.1759338729 80105 10240 10240 820275200 8399618048000
65	2699870 3406386 69586 57080602 5.0159338729 3209.1759338729 80105 0.017080129996 0.018068129995 1368.3588683048 23.374483251987
82	6106256 2762239 69534 57080550 5.011401175396 3209.171401175396 80105 1400 1400 112147000 157005800000
83	8868495 2762426 69814 57080405 5.037302294448 3209.157302294448 80104 1400 1400 112145600 157003840000
84	11630921 3563082 69534 57080550 5.011401175396 3209.171401175396 80105 0.016345609553 0.072694261805 1313.6681590806 21.57510716134
101	15194003 4594 77495 56411827 5.645486887906 3189.552189221027 142 1 1 142 142
102	15198597 5318 77495 56411827 5.645486887906 3189.552189221027 142 2234 4790356 109639886 1.7484984773418e+14
103	15203915 6433 77495 56411827 5.645486887906 3189.552189221027 142 0.026997949486 0.032751876002 3.940959951962 0.10971063475693
119	15210348 2922634 69821 57080412 5.038853742904 3209.158853742904 80104 10240 10240 820264960 8399513190400
137	18132982 5283 605396 55793870 29.194200548836 3126.305482480921 141 2234 4790356 107342370 1.6957126796392e+14
138	18138265 4560 76192 56411338 5.61846193842 3189.524758292591 142 1 1 142 142
139	18142825 6424 605396 55793870 29.194200548836 3126.305482480921 141 0.428428023961 36.770929597892 1197.5138906617 27330.215056559
140	18149249 9153 73473 56408418 5.400191217838 3189.310551292379 283 0 1 142 142
152	18158402 1194 2119103 56004275 82.255698213944 3147.992326536885 36 1 36 666 16206
164	18159596 1159 2251463 56040585 93.920378271293 3151.669659297347 35 1 35 630 14910
176	18160755 1194 461571 56189979 16.618400187684 3166.984021000638 36 1 36 666 16206
188	18161949 1157 404225 55855608 11.609396554135 3132.647943814577 35 1 35 630 14910
200	18163106 1223 76807 56085463 5.637287889868 3156.216413240591 37 1 37 703 17575
212	18164329 1224 2099476 56285748 80.508007644765 3176.826099359097 37 1 37 703 17575
224	18165553 1232 2199042 56340849 89.336809564892 3182.362234628735 37 1 37 703 17575
236	18166785 1157 462527 57059937 16.651204778253 3207.344741750719 35 1 35 630 14910
248	18167942 1158 375986 55981779 9.165348165123 3145.664180361113 35 1 35 630 14910
260	18169100 1161 2169318 55851331 86.713469049811 3132.223397794244 35 1 35 630 14910
272	18170261 1194 530302 55153089 22.602491234891 3111.793726294297 36 1 36 666 16206
284	18171455 1124 1097178 55990287 51.75340630929 3146.526223417207 34 1 34 595 13685
296	18172579 1194 2165253 56310892 86.357991228892 3179.286061159135 36 1 36 666 16206
306	18173773 2842529 69659 57080250 5.035055565843 3209.155055565843 80104 1400 1400 112145600 157003840000
324	21016302 853 2038112 56024396 75 3150 42 1 42 903 25585
345	21017155 62560 88339 57074482 5.400263069402 3207.559761959773 1358 7.912666210968 8562160 798733447.81781 3.2707388230906e+15
346	21079715 63125 88339 57074482 5.400263069402 3207.559761959773 1358 0.031551449441473 714 67106.425192813 22762240.682349
347	21142840 118203 81680 57074422 5.03544450873 3207.63544450873 3201 276033.26158169 510624 939529446.64482 2.7835148655399e+14
348	21261043 106120 81680 57074422 5.03544450873 3207.63544450873 3201 25 728 158695.40846242 32990271.215522
349	21367163 1164 5188973 55408986 120.038859552904 3000.998859552904 25 1.8660446517827 1.8660446517827 46.651116294568 87.053066061174
350	21368327 1239 5188973 55408986 120.038859552904 3000.998859552904 25 0.0083305564811729 0.0083305564811729 0.20826391202932 0.0017349542821503
351	21369566 123341 81785 57078997 5.038975872904 3208.039221952902 3204 2077600 2089367.2027084 6656659710.1173 1.3829937386658e+16
352	21492907 110541 81785 57078997 5.038975872904 3208.039221952902 3204 175 176 560727.95669434 98132312.757184
353	21603448 123353 81682 57078999 5.03544450873 3208.039221952902 3204 2363200 2599264 7597181967.8815 1.8016698965742e+16
354	21726801 110561 81682 57078999 5.03544450873 3208.039221952902 3204 200 907 719831.587092 187030269.76031
355	21837362 57150 93111 57076858 5.618385926856 3207.779464113523 1242 10.096463821271 7569005.6174122 805775924.04698 3.2817336384951e+15
356	21894512 57678 93111 57076858 5.618385926856 3207.779464113523 1242 0.031551449441473 630.77712536545 67505.062042315 22825191.035993
357	21952190 56857 92933 57076802 5.60834926019 3207.768459446857 1237 10.09646467076 8309899.6231479 835317900.10209 3.8778718528291e+15
358	22009047 57339 92933 57076802 5.60834926019 3207.768459446857 1237 0.031551452096124 692.97828668058 69974.0816997 26970161.996565
359	22066386 121434 81434 57080174 5.00998053957 3208.12998053957 3204 2346843.5423157 2597825.4208876 7597149630.1674 1.8016543102807e+16
360	22187820 108807 81434 57080174 5.00998053957 3208.12998053957 3204 200 903.18833474954 719796.30442479 187037085.27436
361	22296627 120105 81410 57078619 5.002302294448 3208.002302294448 3204 285376 308224 950947200 2.8224138997555e+14
362	22416732 107289 81410 57078619 5.002302294448 3208.002302294448 3204 49 51 160200 8010002
363	22524021 120105 81407 57078616 5.002302294448 3208.002302294448 3204 285600 285600 915062400 2.6134182144e+14
364	22644126 107289 81407 57078616 5.002302294448 3208.002302294448 3204 25 25 80100 2002500
365	22751415 100235 90900 57074908 5.471584328425 3207.547232979621 2167 110.01932834185 230656 24401414.284911 2472084317820.9
366	22851650 100367 90900 57074908 5.471584328425 3207.547232979621 2167 0.34381040106828 719 74463.987125658 24017721.261149
367	22952017 94915 100293 57076800 5.821672393735 3207.768459446857 2063 106.97426473472 10607982.753468 865442615.56028 4.1168090820547e+15
368	23046932 95316 100293 57076800 5.821672393735 3207.768459446857 2063 0.32162046944003 884.48494622461 75753.442555526 28876503.644595
369	23142248 121217 81436 57080176 5.00998053957 3208.12998053957 3204 2019993.2560567 2089487.4770813 6656636120.1041 1.3829850903481e+16
370	23263465 108589 81436 57080176 5.00998053957 3208.12998053957 3204 170.21024188491 175.99052257193 560700.47560273 98122748.158319
375	23372054 121217 81441 57080181 5.00998053957 3208.12998053957 3204 2019993.2560567 2089487.4770813 6656636120.1041 1.3829850903481e+16
376	23493271 108589 81441 57080181 5.00998053957 3208.12998053957 3204 170.21024188491 175.99052257193 560700.47560273 98122748.158319
377	23601860 120105 81753 57078949 5.037302294448 3208.037302294448 3204 285600 285600 915062400 2.6134182144e+14
378	23721965 107289 81753 57078949 5.037302294448 3208.037302294448 3204 25 25 80100 2002500
379	23829254 120105 81429 57078638 5.007302294448 3208.007302294448 3204 285376 308224 950947200 2.8224138997555e+14
380	23949359 107289 81429 57078638 5.007302294448 3208.007302294448 3204 49 51 160200 8010002
381	24056648 95103 98338 57074994 5.645486887906 3207.592157141028 2063 106.97426473472 10840212.951113 905552356.11031 4.5244139721968e+15
382	24151751 95488 98338 57074994 5.645486887906 3207.592157141028 2063 0.32162046944003 906.03754664086 79097.444053602 31721426.93025
383	24247239 100238 91036 57074990 5.48777754322 3207.563426194416 2167 110.01930413335 230656 24401412.522256 2472083953794.5
384	24347477 100376 91036 57074990 5.48777754322 3207.563426194416 2167 0.34381032541672 719 74463.981558962 24017717.701847
385	24447853 123309 81761 57078956 5.038853742904 3208.038853742904 3204 2077600 2077824 6656636224 1.3829839520229e+16
386	24571162 110493 81761 57078956 5.038853742904 3208.038853742904 3204 175 176 560726 98131626
387	24681655 1164 5188980 55408993 120.038865362904 3000.998865362904 25 1.8660446517827 1.8660446517827 46.651116294568 87.053066061174
388	24682819 1239 5188980 55408993 120.038865362904 3000.998865362904 25 0.0083305564811729 0.0083305564811729 0.20826391202932 0.0017349542821503
389	24684058 58685 88421 57074564 5.400191217838 3207.560170131336 1267 8.5093941862062 229440 21257296.750557 2280013907915.2
390	24742743 58772 88421 57074564 5.400191217838 3207.560170131336 1267 0.026591856831894 717 66407.401495419 22266088.995631
391	24801515 62541 88417 57074560 5.401435300966 3207.560170131336 1358 7.912666210968 8562160 797313661.4023 3.2456337477767e+15
392	24864056 63082 88417 57074560 5.401435300966 3207.560170131336 1358 0.031551449361833 714 66987.752142412 22588024.445837
399	24927138 6727 421309 56855441 7.039559365144 3168.992326536885 183 5.4418416545232 202.66666666667 9602.4034874676 929928.32497046
400	24933865 8775 421309 56855441 7.039559365144 3168.992326536885 183 0.014171462641988 0.66666666666667 25.944976385445 7.2317572794421
401	24942640 10105 376263 56940752 5.40135130019 3192.993579618461 218 1.8660655976041 476.94799371109 16921.446476061 2481980.1178089
402	24952745 10374 376263 56940752 5.40135130019 3192.993579618461 218 0.0083306499893042 2.1292321147817 75.54217176813 49.465483853015
409	24963119 6532 410103 56940487 6.091719509458 3172.669659297347 178 5.2336766908319 202.66666666667 9372.7328204405 923045.19789704
410	24969651 8527 410103 56940487 6.091719509458 3172.669659297347 178 0.013629366382375 0.66666666666667 25.402640500574 7.2865091002034
411	24978178 10151 376231 56940809 5.401351287459 3192.99348660573 219 1.8660655976041 476.94799371109 17123.109327459 2530287.2439583
412	24988329 10425 376231 56940809 5.401351287459 3192.99348660573 219 0.0083306499893042 2.1292321147817 76.442452354728 50.428237483226
419	24998754 6552 496197 56395434 16.618400187684 3175.984021000638 178 3.3792819376373 202.66666666667 9556.2775498733 963377.56756223
420	25005306 8550 496197 56395434 16.618400187684 3175.984021000638 178 0.0088002133792639 0.66666666666667 26.005796686376 7.7223208090129
421	25013856 10097 376195 56940684 5.401351272132 3192.993486590403 218 1.8660655976041 476.9152450211 16921.414961465 2481944.5225971
422	25023953 10366 376195 56940684 5.401351272132 3192.993486590403 218 0.0083306499893042 2.1290859152727 75.542031077968 49.464774445892
429	25034319 6394 439053 56295077 11.609396554135 3153.647943814577 174 4.8039808778163 202.66666666667 9424.9879265271 989010.83945952
430	25040713 8337 439053 56295077 11.609396554135 3153.647943814577 174 0.012510366869313 0.66666666666667 25.889230051721 8.215998920352
431	25049050 10115 376239 56940728 5.401351289263 3192.993486607534 218 1.8660655976041 476.94799371109 16921.467753083 2481988.5947203
432	25059165 10383 376239 56940728 5.401351289263 3192.993486607534 218 0.0083306499893042 2.1292321147817 75.542266754835 49.465652796563
439	25069548 6765 369905 56991871 5.637287889868 3177.216413240591 184 4.6374067292628 202.66666666667 9746.4156645482 960077.79326108
440	25076313 8824 369905 56991871 5.637287889868 3177.216413240591 184 0.012076580024122 0.66666666666667 26.361048765976 7.5298176076369
441	25085137 10113 376207 56940696 5.401351283125 3192.993486601396 218 1.8660655976041 476.94799371109 16921.41014718 2481965.5104151
442	25095250 10382 376207 56940696 5.401351283125 3192.993486601396 218 0.0083306499893042 2.1292321147817 75.542009585623 49.465192729892
449	25105632 6838 414307 56953842 6.430866098896 3185.826099359097 187 5.9015613528247 202.66666666667 9779.7123044329 924831.88227777
450	25112470 8944 414307 56953842 6.430866098896 3185.826099359097 187 0.015368649356314 0.66666666666667 26.274201336179 7.0158468121521
451	25121414 10109 376189 56940678 5.401351271866 3192.993486590137 218 1.8660655976041 476.94799371109 16921.460769896 2481979.4461861
452	25131523 10378 376189 56940678 5.401351271866 3192.993486590137 218 0.0083306499893042 2.1292321147817 75.542235579893 49.465470467677
459	25141901 6886 419703 57015894 6.912237749081 3191.362234628735 187 4.1951230703018 202.66666666667 9983.0536868807 1012703.4754169
460	25148787 8989 419703 57015894 6.912237749081 3191.362234628735 187 0.010924799662244 0.66666666666667 27.180074092138 8.2019615624452
461	25157776 10116 376225 56940714 5.401351284907 3192.993486603178 218 1.8660655976041 476.94799371109 16921.483283984 2481987.6854578
462	25167892 10386 376225 56940714 5.401351284907 3192.993486603178 218 0.0083306499893042 2.1292321147817 75.542336089213 49.4656346751
469	25178278 6248 496741 57059940 16.651204778253 3161.349681996365 170 3.4808761560239 202.66666666667 9094.0292592843 942155.80597402
470	25184526 8146 496741 57059940 16.651204778253 3161.349681996365 170 0.0090647816563123 0.66666666666667 24.868221971058 7.7299698604424
471	25192672 10117 376245 56940734 5.401351291014 3192.993486609285 218 1.8660655976041 476.94799371109 16921.413315414 2481964.8704835
472	25202789 10385 376245 56940734 5.401351291014 3192.993486609285 218 0.0083306499893042 2.1292321147817 75.542023729525 49.465179976154
479	25213174 6421 411019 56433015 9.165348165123 3166.664180361113 174 4.9052491097593 202.66666666667 9282.3652515493 940248.26240319
480	25219595 8350 411019 56433015 9.165348165123 3166.664180361113 174 0.012774086223332 0.66666666666667 25.258343646744 7.5579704292263
481	25227945 10115 376324 56940722 5.401351287564 3192.993486605835 218 1.8660655976041 476.94799371109 16921.416226109 2481966.703554
482	25238060 10384 376324 56940722 5.401351287564 3192.993486605835 218 0.0083306499893042 2.1292321147817 75.542036723699 49.465216508968
489	25248444 6536 400055 56290737 5.269093765077 3153.223397794244 178 5.3421719090892 202.66666666667 9424.2019003159 946786.95021518
490	25254980 8534 400055 56290737 5.269093765077 3153.223397794244 178 0.013911906013253 0.66666666666667 25.645006916327 7.6084734707131
491	25263514 10108 376183 56940672 5.40135126546 3192.993486583731 218 1.8660655976041 476.94799371109 16921.45454641 2481980.6859166
492	25273622 10372 376183 56940672 5.40135126546 3192.993486583731 218 0.0083306499893042 2.1292321147817 75.542207796475 49.465495175315
499	25283994 6612 565154 56091022 22.602491234891 3132.793726294297 179 4.0997091201613 202.66666666667 9694.6964592125 998819.99985413
500	25290606 8594 565154 56091022 22.602491234891 3132.793726294297 179 0.010676325833753 0.66666666666667 26.587302127158 8.1989359705914
501	25299200 10100 376251 56940740 5.401351294952 3192.993486613223 218 1.8660655976041 476.94799371109 16921.420361502 2481969.6485571
502	25309300 10365 376251 56940740 5.401351294952 3192.993486613223 218 0.0083306499893042 2.1292321147817 75.542055185276 49.465275202429
509	25319665 6199 1214683 56540210 51.75340630929 3167.526223417207 169 4.0697156706691 202.66666666667 9017.0706107904 916879.95736247
510	25325864 8099 1214683 56540210 51.75340630929 3167.526223417207 169 0.010598217892367 0.66666666666667 24.535754203531 7.3887471579718
511	25333963 10101 376219 56940708 5.401351284102 3192.993486602373 218 1.8660655976041 476.94799371109 16921.451754904 2481981.1050505
512	25344064 10362 376219 56940708 5.401351284102 3192.993486602373 218 0.0083306499893042 2.1292321147817 75.542195334394 49.465503528589
519	25354426 6655 528412 56981503 10.460898586872 3188.286061159135 181 5.0291491474313 202.66666666667 9596.8691923908 963346.37077193
520	25361081 8682 528412 56981503 10.460898586872 3188.286061159135 181 0.013096742571436 0.66666666666667 26.084551045763 7.7133228725754
521	25369763 10121 376213 56940702 5.401351283127 3192.993486601398 218 1.8660655976041 476.94799371109 16921.484263358 2481998.4794301
522	25379884 10382 376213 56940702 5.401351283127 3192.993486601398 218 0.0083306499893042 2.1292321147817 75.542340461419 49.465849797315
529	25390266 120105 81585 57078794 5.035055565843 3208.035055565843 3204 285600 285824 915067552 2.6134476541645e+14