file 44288673 1471641347                                        
version 2
run _14to17on-3-20160819-23:09:37-12915
attr configname _14to17on
attr datetime 20160819-23:09:37
attr experiment _14to17on
attr inifile omnetpp.ini
attr iterationvars $0=14
attr iterationvars2 "$0=14, $repetition=3"
attr measurement $0=14
attr network University
attr processid 12915
attr repetition 3
attr replication #3
attr resultdir results
attr runnumber 3
attr seedset 3

vector 64  University.ccTVMonitoringHost.udpApp[0]  rcvdPk:vector(packetBytes)  ETV
attr interpolationmode  none
attr source  rcvdPk
attr title  "packets received, vector(packetBytes)"
vector 65  University.ccTVMonitoringHost.udpApp[0]  endToEndDelay:vector  ETV
attr interpolationmode  none
attr source  messageAge(rcvdPk)
attr title  "end-to-end delay, vector"
attr unit  s
vector 306  University.whostVideoConf.udpApp[0]  sentPk:vector(packetBytes)  ETV
attr interpolationmode  none
attr source  sentPk
attr title  "packets sent, vector(packetBytes)"
vector 83  University.profLaptop.udpApp[0]  sentPk:vector(packetBytes)  ETV
attr interpolationmode  none
attr source  sentPk
attr title  "packets sent, vector(packetBytes)"
vector 82  University.profLaptop.udpApp[0]  rcvdPk:vector(packetBytes)  ETV
attr interpolationmode  none
attr source  rcvdPk
attr title  "packets received, vector(packetBytes)"
vector 84  University.profLaptop.udpApp[0]  rcvdPkLifetime:vector  ETV
attr interpolationmode  none
attr source  messageAge(rcvdPk)
attr title  "received packet lifetime, vector"
attr unit  s
vector 119  University.CCTV.udpApp[0]  sentPk:vector(packetBytes)  ETV
attr interpolationmode  none
attr source  sentPk
attr title  "packets sent, vector(packetBytes)"
vector 379  University.profLaptop.ppp[0].inputHook[0]  "thruput (bit/sec)"  ETV
vector 380  University.profLaptop.ppp[0].inputHook[0]  packet/sec  ETV
vector 359  University.mainR.ppp[0].inputHook[0]  "thruput (bit/sec)"  ETV
vector 360  University.mainR.ppp[0].inputHook[0]  packet/sec  ETV
vector 369  University.mainR.ppp[3].outputHook[0]  "thruput (bit/sec)"  ETV
vector 370  University.mainR.ppp[3].outputHook[0]  packet/sec  ETV
vector 375  University.ccTVMonitoringHost.ppp[0].inputHook[0]  "thruput (bit/sec)"  ETV
vector 376  University.ccTVMonitoringHost.ppp[0].inputHook[0]  packet/sec  ETV
vector 529  University.whostVideoConf.wlan[0].outputHook[0]  "thruput (bit/sec)"  ETV
vector 530  University.whostVideoConf.wlan[0].outputHook[0]  packet/sec  ETV
vector 551  University.accessPoint.wlan[0].inputHook[0]  "thruput (bit/sec)"  ETV
vector 552  University.accessPoint.wlan[0].inputHook[0]  packet/sec  ETV
vector 559  University.accessPoint.eth[0].outputHook[0]  "thruput (bit/sec)"  ETV
vector 560  University.accessPoint.eth[0].outputHook[0]  packet/sec  ETV
vector 347  University.remoteR.eth[0].inputHook[0]  "thruput (bit/sec)"  ETV
vector 348  University.remoteR.eth[0].inputHook[0]  packet/sec  ETV
vector 353  University.remoteR.ppp[0].outputHook[0]  "thruput (bit/sec)"  ETV
vector 354  University.remoteR.ppp[0].outputHook[0]  packet/sec  ETV
vector 377  University.profLaptop.ppp[0].outputHook[0]  "thruput (bit/sec)"  ETV
vector 378  University.profLaptop.ppp[0].outputHook[0]  packet/sec  ETV
vector 385  University.CCTV.eth[0].outputHook[0]  "thruput (bit/sec)"  ETV
vector 386  University.CCTV.eth[0].outputHook[0]  packet/sec  ETV
vector 351  University.remoteR.eth[1].inputHook[0]  "thruput (bit/sec)"  ETV
vector 352  University.remoteR.eth[1].inputHook[0]  packet/sec  ETV
vector 363  University.mainR.ppp[1].inputHook[0]  "thruput (bit/sec)"  ETV
vector 364  University.mainR.ppp[1].inputHook[0]  packet/sec  ETV
vector 361  University.mainR.ppp[1].outputHook[0]  "thruput (bit/sec)"  ETV
vector 362  University.mainR.ppp[1].outputHook[0]  packet/sec  ETV
vector 224  University.whttpStudents[7].tcpApp[0]  numActiveSessions:vector  ETV
attr interpolationmode  sample-hold
attr source  sum(connect)
attr title  "number of active sessions, vector"
vector 365  University.mainR.ppp[2].outputHook[0]  "thruput (bit/sec)"  ETV
vector 366  University.mainR.ppp[2].outputHook[0]  packet/sec  ETV
vector 383  University.Server.ppp[0].inputHook[0]  "thruput (bit/sec)"  ETV
vector 384  University.Server.ppp[0].inputHook[0]  packet/sec  ETV
vector 381  University.Server.ppp[0].outputHook[0]  "thruput (bit/sec)"  ETV
vector 382  University.Server.ppp[0].outputHook[0]  packet/sec  ETV
vector 367  University.mainR.ppp[2].inputHook[0]  "thruput (bit/sec)"  ETV
vector 368  University.mainR.ppp[2].inputHook[0]  packet/sec  ETV
vector 152  University.whttpStudents[1].tcpApp[0]  numActiveSessions:vector  ETV
attr interpolationmode  sample-hold
attr source  sum(connect)
attr title  "number of active sessions, vector"
vector 345  University.remoteR.eth[0].outputHook[0]  "thruput (bit/sec)"  ETV
vector 346  University.remoteR.eth[0].outputHook[0]  packet/sec  ETV
vector 561  University.accessPoint.eth[0].inputHook[0]  "thruput (bit/sec)"  ETV
vector 562  University.accessPoint.eth[0].inputHook[0]  packet/sec  ETV
vector 549  University.accessPoint.wlan[0].outputHook[0]  "thruput (bit/sec)"  ETV
vector 550  University.accessPoint.wlan[0].outputHook[0]  packet/sec  ETV
vector 451  University.whttpStudents[6].wlan[0].inputHook[0]  "thruput (bit/sec)"  ETV
vector 452  University.whttpStudents[6].wlan[0].inputHook[0]  packet/sec  ETV
vector 521  University.whttpStudents[13].wlan[0].inputHook[0]  "thruput (bit/sec)"  ETV
vector 522  University.whttpStudents[13].wlan[0].inputHook[0]  packet/sec  ETV
vector 501  University.whttpStudents[11].wlan[0].inputHook[0]  "thruput (bit/sec)"  ETV
vector 502  University.whttpStudents[11].wlan[0].inputHook[0]  packet/sec  ETV
vector 471  University.whttpStudents[8].wlan[0].inputHook[0]  "thruput (bit/sec)"  ETV
vector 472  University.whttpStudents[8].wlan[0].inputHook[0]  packet/sec  ETV
vector 511  University.whttpStudents[12].wlan[0].inputHook[0]  "thruput (bit/sec)"  ETV
vector 512  University.whttpStudents[12].wlan[0].inputHook[0]  packet/sec  ETV
vector 531  University.whostVideoConf.wlan[0].inputHook[0]  "thruput (bit/sec)"  ETV
vector 532  University.whostVideoConf.wlan[0].inputHook[0]  packet/sec  ETV
vector 461  University.whttpStudents[7].wlan[0].inputHook[0]  "thruput (bit/sec)"  ETV
vector 462  University.whttpStudents[7].wlan[0].inputHook[0]  packet/sec  ETV
vector 541  University.whostFTP.wlan[0].inputHook[0]  "thruput (bit/sec)"  ETV
vector 542  University.whostFTP.wlan[0].inputHook[0]  packet/sec  ETV
vector 391  University.whttpStudents[0].wlan[0].inputHook[0]  "thruput (bit/sec)"  ETV
vector 392  University.whttpStudents[0].wlan[0].inputHook[0]  packet/sec  ETV
vector 491  University.whttpStudents[10].wlan[0].inputHook[0]  "thruput (bit/sec)"  ETV
vector 492  University.whttpStudents[10].wlan[0].inputHook[0]  packet/sec  ETV
vector 441  University.whttpStudents[5].wlan[0].inputHook[0]  "thruput (bit/sec)"  ETV
vector 442  University.whttpStudents[5].wlan[0].inputHook[0]  packet/sec  ETV
vector 421  University.whttpStudents[3].wlan[0].inputHook[0]  "thruput (bit/sec)"  ETV
vector 422  University.whttpStudents[3].wlan[0].inputHook[0]  packet/sec  ETV
vector 431  University.whttpStudents[4].wlan[0].inputHook[0]  "thruput (bit/sec)"  ETV
vector 432  University.whttpStudents[4].wlan[0].inputHook[0]  packet/sec  ETV
vector 411  University.whttpStudents[2].wlan[0].inputHook[0]  "thruput (bit/sec)"  ETV
vector 412  University.whttpStudents[2].wlan[0].inputHook[0]  packet/sec  ETV
vector 481  University.whttpStudents[9].wlan[0].inputHook[0]  "thruput (bit/sec)"  ETV
vector 482  University.whttpStudents[9].wlan[0].inputHook[0]  packet/sec  ETV
vector 401  University.whttpStudents[1].wlan[0].inputHook[0]  "thruput (bit/sec)"  ETV
vector 402  University.whttpStudents[1].wlan[0].inputHook[0]  packet/sec  ETV
vector 188  University.whttpStudents[4].tcpApp[0]  numActiveSessions:vector  ETV
attr interpolationmode  sample-hold
attr source  sum(connect)
attr title  "number of active sessions, vector"
vector 459  University.whttpStudents[7].wlan[0].outputHook[0]  "thruput (bit/sec)"  ETV
vector 460  University.whttpStudents[7].wlan[0].outputHook[0]  packet/sec  ETV
vector 140  University.whttpStudents[0].tcpApp[0]  numActiveSessions:vector  ETV
attr interpolationmode  sample-hold
attr source  sum(connect)
attr title  "number of active sessions, vector"
vector 138  University.whttpStudents[0].tcpApp[0]  sentPk:vector(packetBytes)  ETV
attr interpolationmode  none
attr source  sentPk
attr title  "packets sent, vector(packetBytes)"
vector 101  University.Server.tcpApp[0]  rcvdPk:vector(packetBytes)  ETV
attr interpolationmode  none
attr source  rcvdPk
attr title  "packets received, vector(packetBytes)"
vector 103  University.Server.tcpApp[0]  endToEndDelay:vector  ETV
attr interpolationmode  none
attr source  messageAge(rcvdPk)
attr title  "end-to-end delay, vector"
attr unit  s
vector 102  University.Server.tcpApp[0]  sentPk:vector(packetBytes)  ETV
attr interpolationmode  none
attr source  sentPk
attr title  "packets sent, vector(packetBytes)"
vector 409  University.whttpStudents[2].wlan[0].outputHook[0]  "thruput (bit/sec)"  ETV
vector 410  University.whttpStudents[2].wlan[0].outputHook[0]  packet/sec  ETV
vector 439  University.whttpStudents[5].wlan[0].outputHook[0]  "thruput (bit/sec)"  ETV
vector 440  University.whttpStudents[5].wlan[0].outputHook[0]  packet/sec  ETV
vector 399  University.whttpStudents[1].wlan[0].outputHook[0]  "thruput (bit/sec)"  ETV
vector 400  University.whttpStudents[1].wlan[0].outputHook[0]  packet/sec  ETV
vector 429  University.whttpStudents[4].wlan[0].outputHook[0]  "thruput (bit/sec)"  ETV
vector 430  University.whttpStudents[4].wlan[0].outputHook[0]  packet/sec  ETV
vector 389  University.whttpStudents[0].wlan[0].outputHook[0]  "thruput (bit/sec)"  ETV
vector 390  University.whttpStudents[0].wlan[0].outputHook[0]  packet/sec  ETV
vector 357  University.mainR.ppp[0].outputHook[0]  "thruput (bit/sec)"  ETV
vector 358  University.mainR.ppp[0].outputHook[0]  packet/sec  ETV
vector 355  University.remoteR.ppp[0].inputHook[0]  "thruput (bit/sec)"  ETV
vector 356  University.remoteR.ppp[0].inputHook[0]  packet/sec  ETV
vector 272  University.whttpStudents[11].tcpApp[0]  numActiveSessions:vector  ETV
attr interpolationmode  sample-hold
attr source  sum(connect)
attr title  "number of active sessions, vector"
vector 419  University.whttpStudents[3].wlan[0].outputHook[0]  "thruput (bit/sec)"  ETV
vector 420  University.whttpStudents[3].wlan[0].outputHook[0]  packet/sec  ETV
vector 236  University.whttpStudents[8].tcpApp[0]  numActiveSessions:vector  ETV
attr interpolationmode  sample-hold
attr source  sum(connect)
attr title  "number of active sessions, vector"
vector 489  University.whttpStudents[10].wlan[0].outputHook[0]  "thruput (bit/sec)"  ETV
vector 490  University.whttpStudents[10].wlan[0].outputHook[0]  packet/sec  ETV
vector 519  University.whttpStudents[13].wlan[0].outputHook[0]  "thruput (bit/sec)"  ETV
vector 520  University.whttpStudents[13].wlan[0].outputHook[0]  packet/sec  ETV
vector 499  University.whttpStudents[11].wlan[0].outputHook[0]  "thruput (bit/sec)"  ETV
vector 500  University.whttpStudents[11].wlan[0].outputHook[0]  packet/sec  ETV
vector 212  University.whttpStudents[6].tcpApp[0]  numActiveSessions:vector  ETV
attr interpolationmode  sample-hold
attr source  sum(connect)
attr title  "number of active sessions, vector"
vector 469  University.whttpStudents[8].wlan[0].outputHook[0]  "thruput (bit/sec)"  ETV
vector 470  University.whttpStudents[8].wlan[0].outputHook[0]  packet/sec  ETV
vector 284  University.whttpStudents[12].tcpApp[0]  numActiveSessions:vector  ETV
attr interpolationmode  sample-hold
attr source  sum(connect)
attr title  "number of active sessions, vector"
vector 137  University.whttpStudents[0].tcpApp[0]  rcvdPk:vector(packetBytes)  ETV
attr interpolationmode  none
attr source  rcvdPk
attr title  "packets received, vector(packetBytes)"
vector 139  University.whttpStudents[0].tcpApp[0]  endToEndDelay:vector  ETV
attr interpolationmode  none
attr source  messageAge(rcvdPk)
attr title  "end-to-end delay, vector"
attr unit  s
vector 449  University.whttpStudents[6].wlan[0].outputHook[0]  "thruput (bit/sec)"  ETV
vector 450  University.whttpStudents[6].wlan[0].outputHook[0]  packet/sec  ETV
vector 509  University.whttpStudents[12].wlan[0].outputHook[0]  "thruput (bit/sec)"  ETV
vector 510  University.whttpStudents[12].wlan[0].outputHook[0]  packet/sec  ETV
vector 539  University.whostFTP.wlan[0].outputHook[0]  "thruput (bit/sec)"  ETV
vector 540  University.whostFTP.wlan[0].outputHook[0]  packet/sec  ETV
vector 248  University.whttpStudents[9].tcpApp[0]  numActiveSessions:vector  ETV
attr interpolationmode  sample-hold
attr source  sum(connect)
attr title  "number of active sessions, vector"
vector 479  University.whttpStudents[9].wlan[0].outputHook[0]  "thruput (bit/sec)"  ETV
vector 480  University.whttpStudents[9].wlan[0].outputHook[0]  packet/sec  ETV
vector 324  University.whostFTP.tcpApp[0]  numActiveSessions:vector  ETV
attr interpolationmode  sample-hold
attr source  sum(connect)
attr title  "number of active sessions, vector"
vector 200  University.whttpStudents[5].tcpApp[0]  numActiveSessions:vector  ETV
attr interpolationmode  sample-hold
attr source  sum(connect)
attr title  "number of active sessions, vector"
vector 176  University.whttpStudents[3].tcpApp[0]  numActiveSessions:vector  ETV
attr interpolationmode  sample-hold
attr source  sum(connect)
attr title  "number of active sessions, vector"
vector 296  University.whttpStudents[13].tcpApp[0]  numActiveSessions:vector  ETV
attr interpolationmode  sample-hold
attr source  sum(connect)
attr title  "number of active sessions, vector"
vector 260  University.whttpStudents[10].tcpApp[0]  numActiveSessions:vector  ETV
attr interpolationmode  sample-hold
attr source  sum(connect)
attr title  "number of active sessions, vector"
vector 164  University.whttpStudents[2].tcpApp[0]  numActiveSessions:vector  ETV
attr interpolationmode  sample-hold
attr source  sum(connect)
attr title  "number of active sessions, vector"
vector 349  University.remoteR.eth[1].outputHook[0]  "thruput (bit/sec)"  ETV
vector 350  University.remoteR.eth[1].outputHook[0]  packet/sec  ETV
vector 387  University.CCTV.eth[0].inputHook[0]  "thruput (bit/sec)"  ETV
vector 388  University.CCTV.eth[0].inputHook[0]  packet/sec  ETV
64	14410 2875208 68828 64205331 5.015446806216 3246.535446806216 81039 10240 10240 829839360 8497555046400
65	2889618 3604552 68828 64205331 5.015446806216 3246.535446806216 81039 0.017080129996 0.017143463329 1384.2259102351 23.643943707433
82	6494170 2715528 69009 64205577 5.03813158026 3246.55813158026 81029 1400 1400 113440600 158816840000
83	9209698 2794176 68998 64205566 5.033597961692 3246.553597961692 81039 1400 1400 113454600 158836440000
84	12003874 3524848 69009 64205577 5.03813158026 3246.55813158026 81029 0.016345619756 0.17911087588 1329.4461637031 21.895028798548
101	15528722 5154 128238 64061524 10.808513682284 3243.254225917683 159 1 1 159 159
102	15533876 5980 128238 64061524 10.808513682284 3243.254225917683 159 3017 8260675 138788722 2.8811949542799e+14
103	15539856 7216 128238 64061524 10.808513682284 3243.254225917683 159 0.034818208296 0.040807072309 5.629538982067 0.19958726552897
119	15547072 2875215 69010 64205578 5.03836667622 3246.55836667622 81039 10240 10240 829839360 8497555046400
137	18422287 5978 403560 64182242 17.781417125392 3244.22268701245 159 3017 8260675 138788722 2.8811949542799e+14
138	18428265 5154 127520 64060706 10.773650473988 3243.219389709387 159 1 1 159 159
139	18433419 7204 403560 64182242 17.781417125392 3244.22268701245 159 0.097557227246 13.185700925441 619.07686292144 4614.4408763925
140	18440623 10306 126384 64182242 10.725604460364 3244.22268701245 318 0 1 159 159
152	18450929 1155 104638 62395015 8.61878512217 3169.752282348861 35 1 35 630 14910
164	18452084 1190 1853144 62812011 114.219374558297 3189.556590546234 36 1 36 666 16206
176	18453274 1127 1467580 62715866 83.507913809021 3179.813415203975 34 1 34 595 13685
188	18454401 1191 106262 62807170 8.718985230818 3189.137755861007 36 1 36 666 16206
200	18455592 1227 1447890 61713306 82.296977700753 3138.554991692165 37 1 37 703 17575
212	18456819 1197 368188 63381385 15.710693147455 3217.749116894928 36 1 36 666 16206
224	18458016 1155 83796 61045599 6.552132600329 3116.901650535907 35 1 35 630 14910
236	18459171 1226 329265 62724160 13.405571309147 3180.638860622105 37 1 37 703 17575
248	18460397 1160 443435 62801816 21.775386743307 3188.614150522346 35 1 35 630 14910
260	18461557 1192 1678482 61919074 98.684923854455 3159.071967985069 36 1 36 666 16206
272	18462749 1195 306884 62787723 12.070299482472 3187.174583695731 36 1 36 666 16206
284	18463944 1189 402010 62809480 17.720353224328 3189.307121846254 36 1 36 666 16206
296	18465133 1192 1471747 62763668 83.746274220497 3184.665934341984 36 1 36 666 16206
306	18466325 2875214 68829 64205404 5.021785960504 3246.541785960504 81039 1400 1400 113454600 158836440000
324	21341539 873 1161419 63781295 75 3225 43 1 43 946 27434
345	21342412 41436 104724 64182048 6.552204434379 3243.21931371053 894 7.0992490508287 11226291.540019 975587024.33277 4.9984711287592e+15
346	21383848 41658 104724 64182048 6.552204434379 3243.21931371053 894 0.031693076119771 935.53095832751 81833.144896205 34949439.061488
347	21425506 124283 78718 64198372 5.022174913594 3244.822174913594 3236 263840 583729.91487216 955751856.94167 2.8584085027805e+14
348	21549789 112788 78718 64198372 5.022174913594 3244.822174913594 3236 25 926.78805757878 179394.82351914 44293695.400628
349	21662577 1185 4156879 64040053 120.03837248622 3121.03837248622 26 1.8660446517827 1.8660446517827 48.517160946351 90.535188703621
350	21663762 1263 4156879 64040053 120.03837248622 3121.03837248622 26 0.0083305564811729 0.0083305564811729 0.2165944685105 0.0018043524534363
351	21665025 124628 78821 64200570 5.03848880622 3245.038734886218 3241 2077600 2089367.2027084 6733531134.1173 1.3989645922593e+16
352	21789653 111680 78821 64200570 5.03848880622 3245.038734886218 3241 175 176 567203.95669434 99265788.757184
353	21901333 124650 78720 64200572 5.022174913594 3245.038734886218 3241 2346560 2653824 7690808970.837 1.8253608366438e+16
354	22025983 111722 78720 64200572 5.022174913594 3245.038734886218 3241 200 1108 747002.29665952 206631527.64009
355	22137705 32020 302447 64182046 10.773574475131 3243.21931371053 690 13.645402618551 11204394.00524 954859104.82521 4.976036681763e+15
356	22169725 32033 302447 64182046 10.773574475131 3243.21931371053 690 0.04264188318297 933.70616500601 79882.964692421 34765059.924834
357	22201758 32008 302380 64181965 10.763537808465 3243.209277043864 690 13.645404170192 11007525.938568 1076523777.8898 6.5578584919133e+15
358	22233766 32011 302380 64181965 10.763537808465 3243.209277043864 690 0.042641888031851 917.79038147049 90028.553045423 45798289.531616
359	22265777 124951 78549 64201100 5.009493472886 3245.090498139552 3241 2339108.374683 2661313.6547103 7690824194.6117 1.825372123862e+16
360	22390728 112134 78549 64201100 5.009493472886 3245.090498139552 3241 199.997676027 1108 747005.11291374 206684352.53326
361	22502862 121471 78831 64200555 5.038597961692 3245.038597961692 3241 182560 308224 961814560 2.8544648880026e+14
362	22624333 108507 78831 64200555 5.038597961692 3245.038597961692 3241 40 51 162040 8101606
363	22732840 121471 78828 64200552 5.038597961692 3245.038597961692 3241 285600 285600 925629600 2.6435981376e+14
364	22854311 108507 78828 64200552 5.038597961692 3245.038597961692 3241 25 25 81025 2025625
365	22962818 84234 84493 64200340 5.049337898276 3244.184481955005 1826 150.64990224226 291475.02740949 29742751.316776 3487668950464.1
366	23047052 84493 84493 64200340 5.049337898276 3244.184481955005 1826 0.33627210321932 909.85961492398 91388.747637802 33879424.965405
367	23131545 83561 84737 64200701 5.049337898276 3244.210815259869 1812 85.540862195759 10932704 1161413019.7028 6.42817837372e+15
368	23215106 83837 84737 64200701 5.049337898276 3244.210815259869 1812 0.24301381305613 913.96738732032 100177.47642389 45230261.491949
369	23298943 124900 78551 64201102 5.009493472886 3245.090498139552 3241 2019993.2560567 2087723.8321821 6733515305.7377 1.398958780363e+16
370	23423843 112065 78551 64201102 5.009493472886 3245.090498139552 3241 170.21024188491 175.8419766769 567176.1395574 99256078.663945
375	23535908 124900 78556 64201107 5.009493472886 3245.090498139552 3241 2019993.2560567 2087723.8321821 6733515305.7377 1.398958780363e+16
376	23660808 112065 78556 64201107 5.009493472886 3245.090498139552 3241 170.21024188491 175.8419766769 567176.1395574 99256078.663945
377	23772873 121471 78785 64200509 5.033597961692 3245.033597961692 3241 285600 285600 925629600 2.6435981376e+14
378	23894344 108507 78785 64200509 5.033597961692 3245.033597961692 3241 25 25 81025 2025625
379	24002851 121471 78541 64200256 5.003597961692 3245.003597961692 3241 193984 308224 961814560 2.8544492270694e+14
380	24124322 108507 78541 64200256 5.003597961692 3245.003597961692 3241 41 51 162040 8101594
381	24232829 83543 84732 64200613 5.047133625138 3244.208494186731 1812 85.540868847795 14705369.287585 1171978886.1051 6.6256218149773e+15
382	24316372 83785 84732 64200613 5.047133625138 3244.208494186731 1812 0.24301383195396 1227.796212212 101057.85906942 46605062.737306
383	24400157 84264 84728 64200612 5.073351410002 3244.208494186731 1826 150.64993466425 291475.02740949 29742756.259605 3487670396815.6
384	24484421 84533 84728 64200612 5.073351410002 3244.208494186731 1826 0.33627217558985 909.85961492398 91388.763018651 33879439.006959
385	24568954 121471 78797 64200521 5.03836667622 3245.03836667622 3241 2077600 2077824 6733507648 1.3989548056164e+16
386	24690425 108507 78797 64200521 5.03836667622 3245.03836667622 3241 175 176 567202 99265102
387	24798932 1185 4156886 64040060 120.03837829622 3121.03837829622 26 1.8660446517827 1.8660446517827 48.517160946351 90.535188703621
388	24800117 1263 4156886 64040060 120.03837829622 3121.03837829622 26 0.0083305564811729 0.0083305564811729 0.2165944685105 0.0018043524534363
389	24801380 32170 301792 64181385 10.725604460364 3243.172946753477 694 4.2004981244526 289904.76838046 25293650.107931 3454769894965.9
390	24833550 32200 301792 64181385 10.725604460364 3243.172946753477 694 0.013126556638914 905.95240118894 79025.02911508 33723287.089949
391	24865750 41417 104877 64182239 6.553292653236 3243.219389709387 894 7.0992490508287 10871348.906669 969619495.6734 4.9305365110837e+15
392	24907167 41644 104877 64182239 6.553292653236 3243.219389709387 894 0.031693076119771 905.95240118894 81336.724724091 34477413.929841
399	24948811 6466 298826 63312079 8.61878512217 3190.752282348861 174 5.2416481151584 202.66666666667 9522.4578259226 1014966.7805126
400	24955277 8335 298826 63312079 8.61878512217 3190.752282348861 174 0.013650125299892 0.66666666666667 26.333690081762 8.5669025942341
401	24963612 12711 104965 63726107 6.553292650998 3221.618389022253 275 1.866362270041 445.47034091538 24058.188398327 3901227.1368436
402	24976323 13034 104965 63726107 6.553292650998 3221.618389022253 275 0.008331974419826 1.9887068790865 107.40262677824 77.750859710691
409	24989357 6765 135368 63977416 5.013008235156 3210.556590546234 183 5.4365619162399 202.66666666667 9819.8710436172 997511.58946316
410	24996122 8751 135368 63977416 5.013008235156 3210.556590546234 183 0.014157713323541 0.66666666666667 26.924785713423 8.1445913794706
411	25004873 12689 104907 63726147 6.553292665969 3221.618389037224 275 1.866362270041 445.47034091538 24058.217043671 3901242.5915892
412	25017562 13016 104907 63726147 6.553292665969 3221.618389037224 275 0.008331974419826 1.9887068790865 107.40275465925 77.751167721404
419	25030578 6331 326834 63776620 7.273056466975 3200.813415203975 173 3.9206968333544 202.66666666667 9095.7341355888 898370.55324691
420	25036909 8293 326834 63776620 7.273056466975 3200.813415203975 173 0.010210148003527 0.66666666666667 24.648525381227 7.1011588319407
421	25045202 12693 104895 63726135 6.553292660719 3221.618389031974 275 1.866362270041 445.47034091538 24058.109030802 3901185.2577284
422	25057895 13019 104895 63726135 6.553292660719 3221.618389031974 275 0.008331974419826 1.9887068790865 107.40227245894 77.750025066335
429	25070914 6618 300707 63972957 8.718985230818 3210.137755861007 179 4.3399051456641 202.66666666667 9904.2386562141 1084129.8772153
430	25077532 8582 300707 63972957 8.718985230818 3210.137755861007 179 0.011301836316834 0.66666666666667 27.556666530608 9.3527743328663
431	25086114 12695 104901 63726141 6.553292664759 3221.618389036014 275 1.866362270041 445.49957786186 24058.265322754 3901282.4042129
432	25098809 13024 104901 63726141 6.553292664759 3221.618389036014 275 0.008331974419826 1.988837401169 107.40297019087 77.751961180901
439	25111833 6956 230069 62752408 5.356302371193 3159.554991692165 188 6.781662310787 202.66666666667 10173.174777776 1046908.7104966
440	25118789 9011 230069 62752408 5.356302371193 3159.554991692165 188 0.017660578934341 0.66666666666667 27.998456796485 8.6623345570778
441	25127800 12710 104889 63726129 6.553292658328 3221.618389029583 275 1.866362270041 445.47034091538 24058.226615316 3901240.3067946
442	25140510 13033 104889 63726129 6.553292658328 3221.618389029583 275 0.008331974419826 1.9887068790865 107.40279738981 77.751122185799
449	25153543 6616 413409 64017691 15.710693147455 3226.749116894928 178 4.6550660650997 202.66666666667 9738.2119095413 1018266.3093855
450	25160159 8558 413409 64017691 15.710693147455 3226.749116894928 178 0.012122567877864 0.66666666666667 26.838901329975 8.464538826913
451	25168717 12717 104827 63726059 6.553292628627 3221.618388999882 275 1.866362270041 445.47034091538 24058.251796909 3901241.308532
452	25181434 13041 104827 63726059 6.553292628627 3221.618388999882 275 0.008331974419826 1.9887068790865 107.40290980763 77.751142150272
459	25194475 6435 115013 62073466 6.552132600329 3137.901650535907 174 4.3580566822456 202.66666666667 9501.3110537505 997347.92795136
460	25200910 8332 115013 62073466 6.552132600329 3137.901650535907 174 0.011349105943348 0.66666666666667 26.228020258975 8.3284967779836
461	25209242 12693 104863 63726095 6.553394648429 3221.618389019684 275 1.866362270041 445.47034091538 24058.133013663 3901223.0931341
462	25221935 13015 104863 63726095 6.553394648429 3221.618389019684 275 0.008331974419826 1.9887068790865 107.40237952528 77.750779120179
469	25234950 6830 380032 63796071 13.405571309147 3201.638860622105 184 4.7763772015769 202.66666666667 10116.291435713 1083482.7103604
470	25241780 8826 380032 63796071 13.405571309147 3201.638860622105 184 0.012438482295773 0.66666666666667 28.007285865944 9.1951648169832
471	25250606 12714 104845 63726077 6.553292636147 3221.618389007402 275 1.866362270041 445.47034091538 24058.112959871 3901165.4589013
472	25263320 13038 104845 63726077 6.553292636147 3221.618389007402 275 0.008331974419826 1.9887068790865 107.40228999942 77.749630478741
479	25276358 6439 473489 63967582 21.775386743307 3209.614150522346 174 4.7745305003101 202.66666666667 9432.6473453501 988619.50423678
480	25282797 8352 473489 63967582 21.775386743307 3209.614150522346 174 0.012433673177891 0.66666666666667 25.944348615715 8.2121733750173
481	25291149 12689 104913 63726153 6.553292666435 3221.61838903769 275 1.866362270041 445.47034091538 24058.166134446 3901206.5038596
482	25303838 13014 104913 63726153 6.553292666435 3221.61838903769 275 0.008331974419826 1.9887068790865 107.40252738592 77.750448498478
489	25316852 6734 331371 62953966 7.501430900134 3180.071967985069 183 4.9849439372683 202.66666666667 9842.4937285988 1017436.2862257
490	25323586 8764 331371 62953966 7.501430900134 3180.071967985069 183 0.012981624836636 0.66666666666667 27.020868690388 8.4134795847265
491	25332350 12722 104883 63726123 6.55329265622 3221.618389027475 275 1.866362270041 445.47034091538 24058.229976904 3901261.9974021
492	25345072 13043 104883 63726123 6.55329265622 3221.618389027475 275 0.008331974419826 1.9887068790865 107.40281239689 77.751554476286
499	25358115 6663 357442 63953676 12.070299482472 3208.174583695731 179 4.3669649239885 202.66666666667 9815.3411857153 1038677.1637952
500	25364778 8600 357442 63953676 12.070299482472 3208.174583695731 179 0.011372304489553 0.66666666666667 27.147495010034 8.738093996108
501	25373378 12719 104839 63726071 6.55329263301 3221.618389004265 275 1.866362270041 445.47034091538 24058.191770187 3901221.362961
502	25386097 13050 104839 63726071 6.55329263301 3221.618389004265 275 0.008331974419826 1.9887068790865 107.40264183119 77.750744638094
509	25399147 6586 432809 63974868 17.720353224328 3210.307121846254 179 4.5420945480945 202.66666666667 9584.8935716444 963431.85721188
510	25405733 8575 432809 63974868 17.720353224328 3210.307121846254 179 0.011828371218996 0.66666666666667 26.119525580697 7.7224000196223
511	25414308 12690 104851 63726083 6.553292643755 3221.61838901501 275 1.866362270041 445.47034091538 24058.185085818 3901232.6654741
512	25426998 13017 104851 63726083 6.553292643755 3221.61838901501 275 0.008331974419826 1.9887068790865 107.40261199026 77.750969895451
519	25440015 6767 336706 63929604 7.822101506027 3205.665934341984 183 4.5472800922519 202.66666666667 9942.0073813233 1034872.5446765
520	25446782 8759 336706 63929604 7.822101506027 3205.665934341984 183 0.011841875240239 0.66666666666667 27.472171596939 8.6493839977711
521	25455541 12717 104833 63726065 6.553292631391 3221.618389002646 275 1.866362270041 445.47034091538 24058.202276393 3901226.1667424
522	25468258 13046 104833 63726065 6.553292631391 3221.618389002646 275 0.008331974419826 1.9887068790865 107.4026887339 77.750840376721