file 44907001 1471641373                                        
version 2
run _14to17on-2-20160819-23:09:37-12914
attr configname _14to17on
attr datetime 20160819-23:09:37
attr experiment _14to17on
attr inifile omnetpp.ini
attr iterationvars $0=14
attr iterationvars2 "$0=14, $repetition=2"
attr measurement $0=14
attr network University
attr processid 12914
attr repetition 2
attr replication #2
attr resultdir results
attr runnumber 2
attr seedset 2

vector 306  University.whostVideoConf.udpApp[0]  sentPk:vector(packetBytes)  ETV
attr interpolationmode  none
attr source  sentPk
attr title  "packets sent, vector(packetBytes)"
vector 119  University.CCTV.udpApp[0]  sentPk:vector(packetBytes)  ETV
attr interpolationmode  none
attr source  sentPk
attr title  "packets sent, vector(packetBytes)"
vector 82  University.profLaptop.udpApp[0]  rcvdPk:vector(packetBytes)  ETV
attr interpolationmode  none
attr source  rcvdPk
attr title  "packets received, vector(packetBytes)"
vector 84  University.profLaptop.udpApp[0]  rcvdPkLifetime:vector  ETV
attr interpolationmode  none
attr source  messageAge(rcvdPk)
attr title  "received packet lifetime, vector"
attr unit  s
vector 64  University.ccTVMonitoringHost.udpApp[0]  rcvdPk:vector(packetBytes)  ETV
attr interpolationmode  none
attr source  rcvdPk
attr title  "packets received, vector(packetBytes)"
vector 65  University.ccTVMonitoringHost.udpApp[0]  endToEndDelay:vector  ETV
attr interpolationmode  none
attr source  messageAge(rcvdPk)
attr title  "end-to-end delay, vector"
attr unit  s
vector 83  University.profLaptop.udpApp[0]  sentPk:vector(packetBytes)  ETV
attr interpolationmode  none
attr source  sentPk
attr title  "packets sent, vector(packetBytes)"
vector 152  University.whttpStudents[1].tcpApp[0]  numActiveSessions:vector  ETV
attr interpolationmode  sample-hold
attr source  sum(connect)
attr title  "number of active sessions, vector"
vector 363  University.mainR.ppp[1].inputHook[0]  "thruput (bit/sec)"  ETV
vector 364  University.mainR.ppp[1].inputHook[0]  packet/sec  ETV
vector 361  University.mainR.ppp[1].outputHook[0]  "thruput (bit/sec)"  ETV
vector 362  University.mainR.ppp[1].outputHook[0]  packet/sec  ETV
vector 529  University.whostVideoConf.wlan[0].outputHook[0]  "thruput (bit/sec)"  ETV
vector 530  University.whostVideoConf.wlan[0].outputHook[0]  packet/sec  ETV
vector 551  University.accessPoint.wlan[0].inputHook[0]  "thruput (bit/sec)"  ETV
vector 552  University.accessPoint.wlan[0].inputHook[0]  packet/sec  ETV
vector 559  University.accessPoint.eth[0].outputHook[0]  "thruput (bit/sec)"  ETV
vector 560  University.accessPoint.eth[0].outputHook[0]  packet/sec  ETV
vector 347  University.remoteR.eth[0].inputHook[0]  "thruput (bit/sec)"  ETV
vector 348  University.remoteR.eth[0].inputHook[0]  packet/sec  ETV
vector 353  University.remoteR.ppp[0].outputHook[0]  "thruput (bit/sec)"  ETV
vector 354  University.remoteR.ppp[0].outputHook[0]  packet/sec  ETV
vector 379  University.profLaptop.ppp[0].inputHook[0]  "thruput (bit/sec)"  ETV
vector 380  University.profLaptop.ppp[0].inputHook[0]  packet/sec  ETV
vector 385  University.CCTV.eth[0].outputHook[0]  "thruput (bit/sec)"  ETV
vector 386  University.CCTV.eth[0].outputHook[0]  packet/sec  ETV
vector 351  University.remoteR.eth[1].inputHook[0]  "thruput (bit/sec)"  ETV
vector 352  University.remoteR.eth[1].inputHook[0]  packet/sec  ETV
vector 359  University.mainR.ppp[0].inputHook[0]  "thruput (bit/sec)"  ETV
vector 360  University.mainR.ppp[0].inputHook[0]  packet/sec  ETV
vector 369  University.mainR.ppp[3].outputHook[0]  "thruput (bit/sec)"  ETV
vector 370  University.mainR.ppp[3].outputHook[0]  packet/sec  ETV
vector 375  University.ccTVMonitoringHost.ppp[0].inputHook[0]  "thruput (bit/sec)"  ETV
vector 376  University.ccTVMonitoringHost.ppp[0].inputHook[0]  packet/sec  ETV
vector 377  University.profLaptop.ppp[0].outputHook[0]  "thruput (bit/sec)"  ETV
vector 378  University.profLaptop.ppp[0].outputHook[0]  packet/sec  ETV
vector 365  University.mainR.ppp[2].outputHook[0]  "thruput (bit/sec)"  ETV
vector 366  University.mainR.ppp[2].outputHook[0]  packet/sec  ETV
vector 383  University.Server.ppp[0].inputHook[0]  "thruput (bit/sec)"  ETV
vector 384  University.Server.ppp[0].inputHook[0]  packet/sec  ETV
vector 381  University.Server.ppp[0].outputHook[0]  "thruput (bit/sec)"  ETV
vector 382  University.Server.ppp[0].outputHook[0]  packet/sec  ETV
vector 367  University.mainR.ppp[2].inputHook[0]  "thruput (bit/sec)"  ETV
vector 368  University.mainR.ppp[2].inputHook[0]  packet/sec  ETV
vector 140  University.whttpStudents[0].tcpApp[0]  numActiveSessions:vector  ETV
attr interpolationmode  sample-hold
attr source  sum(connect)
attr title  "number of active sessions, vector"
vector 345  University.remoteR.eth[0].outputHook[0]  "thruput (bit/sec)"  ETV
vector 346  University.remoteR.eth[0].outputHook[0]  packet/sec  ETV
vector 561  University.accessPoint.eth[0].inputHook[0]  "thruput (bit/sec)"  ETV
vector 562  University.accessPoint.eth[0].inputHook[0]  packet/sec  ETV
vector 549  University.accessPoint.wlan[0].outputHook[0]  "thruput (bit/sec)"  ETV
vector 550  University.accessPoint.wlan[0].outputHook[0]  packet/sec  ETV
vector 461  University.whttpStudents[7].wlan[0].inputHook[0]  "thruput (bit/sec)"  ETV
vector 462  University.whttpStudents[7].wlan[0].inputHook[0]  packet/sec  ETV
vector 401  University.whttpStudents[1].wlan[0].inputHook[0]  "thruput (bit/sec)"  ETV
vector 402  University.whttpStudents[1].wlan[0].inputHook[0]  packet/sec  ETV
vector 491  University.whttpStudents[10].wlan[0].inputHook[0]  "thruput (bit/sec)"  ETV
vector 492  University.whttpStudents[10].wlan[0].inputHook[0]  packet/sec  ETV
vector 541  University.whostFTP.wlan[0].inputHook[0]  "thruput (bit/sec)"  ETV
vector 542  University.whostFTP.wlan[0].inputHook[0]  packet/sec  ETV
vector 441  University.whttpStudents[5].wlan[0].inputHook[0]  "thruput (bit/sec)"  ETV
vector 442  University.whttpStudents[5].wlan[0].inputHook[0]  packet/sec  ETV
vector 451  University.whttpStudents[6].wlan[0].inputHook[0]  "thruput (bit/sec)"  ETV
vector 452  University.whttpStudents[6].wlan[0].inputHook[0]  packet/sec  ETV
vector 431  University.whttpStudents[4].wlan[0].inputHook[0]  "thruput (bit/sec)"  ETV
vector 432  University.whttpStudents[4].wlan[0].inputHook[0]  packet/sec  ETV
vector 511  University.whttpStudents[12].wlan[0].inputHook[0]  "thruput (bit/sec)"  ETV
vector 512  University.whttpStudents[12].wlan[0].inputHook[0]  packet/sec  ETV
vector 521  University.whttpStudents[13].wlan[0].inputHook[0]  "thruput (bit/sec)"  ETV
vector 522  University.whttpStudents[13].wlan[0].inputHook[0]  packet/sec  ETV
vector 421  University.whttpStudents[3].wlan[0].inputHook[0]  "thruput (bit/sec)"  ETV
vector 422  University.whttpStudents[3].wlan[0].inputHook[0]  packet/sec  ETV
vector 471  University.whttpStudents[8].wlan[0].inputHook[0]  "thruput (bit/sec)"  ETV
vector 472  University.whttpStudents[8].wlan[0].inputHook[0]  packet/sec  ETV
vector 411  University.whttpStudents[2].wlan[0].inputHook[0]  "thruput (bit/sec)"  ETV
vector 412  University.whttpStudents[2].wlan[0].inputHook[0]  packet/sec  ETV
vector 481  University.whttpStudents[9].wlan[0].inputHook[0]  "thruput (bit/sec)"  ETV
vector 482  University.whttpStudents[9].wlan[0].inputHook[0]  packet/sec  ETV
vector 531  University.whostVideoConf.wlan[0].inputHook[0]  "thruput (bit/sec)"  ETV
vector 532  University.whostVideoConf.wlan[0].inputHook[0]  packet/sec  ETV
vector 501  University.whttpStudents[11].wlan[0].inputHook[0]  "thruput (bit/sec)"  ETV
vector 502  University.whttpStudents[11].wlan[0].inputHook[0]  packet/sec  ETV
vector 391  University.whttpStudents[0].wlan[0].inputHook[0]  "thruput (bit/sec)"  ETV
vector 392  University.whttpStudents[0].wlan[0].inputHook[0]  packet/sec  ETV
vector 138  University.whttpStudents[0].tcpApp[0]  sentPk:vector(packetBytes)  ETV
attr interpolationmode  none
attr source  sentPk
attr title  "packets sent, vector(packetBytes)"
vector 101  University.Server.tcpApp[0]  rcvdPk:vector(packetBytes)  ETV
attr interpolationmode  none
attr source  rcvdPk
attr title  "packets received, vector(packetBytes)"
vector 103  University.Server.tcpApp[0]  endToEndDelay:vector  ETV
attr interpolationmode  none
attr source  messageAge(rcvdPk)
attr title  "end-to-end delay, vector"
attr unit  s
vector 102  University.Server.tcpApp[0]  sentPk:vector(packetBytes)  ETV
attr interpolationmode  none
attr source  sentPk
attr title  "packets sent, vector(packetBytes)"
vector 399  University.whttpStudents[1].wlan[0].outputHook[0]  "thruput (bit/sec)"  ETV
vector 400  University.whttpStudents[1].wlan[0].outputHook[0]  packet/sec  ETV
vector 389  University.whttpStudents[0].wlan[0].outputHook[0]  "thruput (bit/sec)"  ETV
vector 390  University.whttpStudents[0].wlan[0].outputHook[0]  packet/sec  ETV
vector 357  University.mainR.ppp[0].outputHook[0]  "thruput (bit/sec)"  ETV
vector 358  University.mainR.ppp[0].outputHook[0]  packet/sec  ETV
vector 355  University.remoteR.ppp[0].inputHook[0]  "thruput (bit/sec)"  ETV
vector 356  University.remoteR.ppp[0].inputHook[0]  packet/sec  ETV
vector 449  University.whttpStudents[6].wlan[0].outputHook[0]  "thruput (bit/sec)"  ETV
vector 450  University.whttpStudents[6].wlan[0].outputHook[0]  packet/sec  ETV
vector 248  University.whttpStudents[9].tcpApp[0]  numActiveSessions:vector  ETV
attr interpolationmode  sample-hold
attr source  sum(connect)
attr title  "number of active sessions, vector"
vector 409  University.whttpStudents[2].wlan[0].outputHook[0]  "thruput (bit/sec)"  ETV
vector 410  University.whttpStudents[2].wlan[0].outputHook[0]  packet/sec  ETV
vector 224  University.whttpStudents[7].tcpApp[0]  numActiveSessions:vector  ETV
attr interpolationmode  sample-hold
attr source  sum(connect)
attr title  "number of active sessions, vector"
vector 429  University.whttpStudents[4].wlan[0].outputHook[0]  "thruput (bit/sec)"  ETV
vector 430  University.whttpStudents[4].wlan[0].outputHook[0]  packet/sec  ETV
vector 479  University.whttpStudents[9].wlan[0].outputHook[0]  "thruput (bit/sec)"  ETV
vector 480  University.whttpStudents[9].wlan[0].outputHook[0]  packet/sec  ETV
vector 137  University.whttpStudents[0].tcpApp[0]  rcvdPk:vector(packetBytes)  ETV
attr interpolationmode  none
attr source  rcvdPk
attr title  "packets received, vector(packetBytes)"
vector 139  University.whttpStudents[0].tcpApp[0]  endToEndDelay:vector  ETV
attr interpolationmode  none
attr source  messageAge(rcvdPk)
attr title  "end-to-end delay, vector"
attr unit  s
vector 459  University.whttpStudents[7].wlan[0].outputHook[0]  "thruput (bit/sec)"  ETV
vector 460  University.whttpStudents[7].wlan[0].outputHook[0]  packet/sec  ETV
vector 539  University.whostFTP.wlan[0].outputHook[0]  "thruput (bit/sec)"  ETV
vector 540  University.whostFTP.wlan[0].outputHook[0]  packet/sec  ETV
vector 509  University.whttpStudents[12].wlan[0].outputHook[0]  "thruput (bit/sec)"  ETV
vector 510  University.whttpStudents[12].wlan[0].outputHook[0]  packet/sec  ETV
vector 519  University.whttpStudents[13].wlan[0].outputHook[0]  "thruput (bit/sec)"  ETV
vector 520  University.whttpStudents[13].wlan[0].outputHook[0]  packet/sec  ETV
vector 419  University.whttpStudents[3].wlan[0].outputHook[0]  "thruput (bit/sec)"  ETV
vector 420  University.whttpStudents[3].wlan[0].outputHook[0]  packet/sec  ETV
vector 236  University.whttpStudents[8].tcpApp[0]  numActiveSessions:vector  ETV
attr interpolationmode  sample-hold
attr source  sum(connect)
attr title  "number of active sessions, vector"
vector 200  University.whttpStudents[5].tcpApp[0]  numActiveSessions:vector  ETV
attr interpolationmode  sample-hold
attr source  sum(connect)
attr title  "number of active sessions, vector"
vector 469  University.whttpStudents[8].wlan[0].outputHook[0]  "thruput (bit/sec)"  ETV
vector 470  University.whttpStudents[8].wlan[0].outputHook[0]  packet/sec  ETV
vector 260  University.whttpStudents[10].tcpApp[0]  numActiveSessions:vector  ETV
attr interpolationmode  sample-hold
attr source  sum(connect)
attr title  "number of active sessions, vector"
vector 439  University.whttpStudents[5].wlan[0].outputHook[0]  "thruput (bit/sec)"  ETV
vector 440  University.whttpStudents[5].wlan[0].outputHook[0]  packet/sec  ETV
vector 489  University.whttpStudents[10].wlan[0].outputHook[0]  "thruput (bit/sec)"  ETV
vector 490  University.whttpStudents[10].wlan[0].outputHook[0]  packet/sec  ETV
vector 272  University.whttpStudents[11].tcpApp[0]  numActiveSessions:vector  ETV
attr interpolationmode  sample-hold
attr source  sum(connect)
attr title  "number of active sessions, vector"
vector 499  University.whttpStudents[11].wlan[0].outputHook[0]  "thruput (bit/sec)"  ETV
vector 500  University.whttpStudents[11].wlan[0].outputHook[0]  packet/sec  ETV
vector 324  University.whostFTP.tcpApp[0]  numActiveSessions:vector  ETV
attr interpolationmode  sample-hold
attr source  sum(connect)
attr title  "number of active sessions, vector"
vector 176  University.whttpStudents[3].tcpApp[0]  numActiveSessions:vector  ETV
attr interpolationmode  sample-hold
attr source  sum(connect)
attr title  "number of active sessions, vector"
vector 188  University.whttpStudents[4].tcpApp[0]  numActiveSessions:vector  ETV
attr interpolationmode  sample-hold
attr source  sum(connect)
attr title  "number of active sessions, vector"
vector 212  University.whttpStudents[6].tcpApp[0]  numActiveSessions:vector  ETV
attr interpolationmode  sample-hold
attr source  sum(connect)
attr title  "number of active sessions, vector"
vector 284  University.whttpStudents[12].tcpApp[0]  numActiveSessions:vector  ETV
attr interpolationmode  sample-hold
attr source  sum(connect)
attr title  "number of active sessions, vector"
vector 296  University.whttpStudents[13].tcpApp[0]  numActiveSessions:vector  ETV
attr interpolationmode  sample-hold
attr source  sum(connect)
attr title  "number of active sessions, vector"
vector 164  University.whttpStudents[2].tcpApp[0]  numActiveSessions:vector  ETV
attr interpolationmode  sample-hold
attr source  sum(connect)
attr title  "number of active sessions, vector"
vector 349  University.remoteR.eth[1].outputHook[0]  "thruput (bit/sec)"  ETV
vector 350  University.remoteR.eth[1].outputHook[0]  packet/sec  ETV
vector 387  University.CCTV.eth[0].inputHook[0]  "thruput (bit/sec)"  ETV
vector 388  University.CCTV.eth[0].inputHook[0]  packet/sec  ETV
64	14410 2870350 70230 66776499 5.028157942445 3237.428157942445 80811 10240 10240 827504640 8473647513600
65	2884760 3597641 70230 66776499 5.028157942445 3237.428157942445 80811 0.017080129996 0.018068129995 1380.3608693605 23.578463265295
82	6482401 2789259 70158 66776427 5.021432029818 3237.421432029818 80810 1400 1400 113134000 158387600000
83	9271660 2789545 70231 66776500 5.037261634543 3237.437261634543 80811 1400 1400 113135400 158389560000
84	12061205 3597097 70158 66776427 5.021432029818 3237.421432029818 80810 0.016345630949 0.118687643205 1326.3069585315 21.825676212987
101	15658302 5599 107042 66666409 8.649663371888 3229.735727909747 173 1 1 173 173
102	15663901 6498 107042 66666409 8.649663371888 3229.735727909747 173 536 2985798 149496080 2.1922210175025e+14
103	15670399 7847 107042 66666409 8.649663371888 3229.735727909747 173 0.027990499843 0.034302698681 4.90807603731 0.13947201045869
119	15678246 2951164 70053 66776322 5.011077812449 3237.411077812449 80811 10240 10240 827504640 8473647513600
137	18629410 6492 534064 66704174 16.186692490508 3230.071915206197 173 536 2985798 149496080 2.1922210175025e+14
138	18635902 5603 106392 66665730 8.621636872045 3229.707710409904 173 1 1 173 173
139	18641505 7818 534064 66704174 16.186692490508 3230.071915206197 173 0.044826843089 10.70476022454 690.51616417279 4684.3537316711
140	18649323 11181 105271 66704174 8.57250477185 3230.071915206197 346 0 1 173 173
152	18660504 1223 77714 64576475 5.796775035326 3119.635014578041 37 1 37 703 17575
164	18661727 1129 3413177 65608323 109.69282401036 3175.662789114987 34 1 34 595 13685
176	18662856 1226 2598559 66716155 77.22140413227 3231.208099452824 37 1 37 703 17575
188	18664082 1195 2642730 65583199 79.837909578315 3173.049968652027 36 1 36 666 16206
200	18665277 1162 823316 65613996 25.574926411812 3176.200610983764 35 1 35 630 14910
212	18666439 1129 2664246 65480644 82.000284742268 3162.521169766965 34 1 34 595 13685
224	18667568 1160 397536 65302889 13.257243456347 3156.453810875874 35 1 35 630 14910
236	18668728 1229 780677 66413246 23.080159391462 3205.422049516917 37 1 37 703 17575
248	18669957 1225 363611 66400667 11.851722441049 3204.228957249961 37 1 37 703 17575
260	18671182 1229 867078 66004074 28.116830800795 3189.657036880408 37 1 37 703 17575
272	18672411 1227 1518728 66405083 52.415689204889 3204.633210942583 37 1 37 703 17575
284	18673638 1226 2838424 66631471 87.222811213887 3226.234505135582 37 1 37 703 17575
296	18674864 1159 3302304 65157529 98.399495477184 3143.611597540648 35 1 35 630 14910
306	18676023 2870389 69893 66776515 5.005086398869 3237.445086398869 80812 1400 1400 113136800 158391520000
324	21546412 875 2448421 66619083 75 3225 43 1 43 946 27434
345	21547287 44436 105357 66665654 5.796846850735 3223.741560871993 962 5.2090340755305 10646375.246464 1044891893.5636 4.8546190603044e+15
346	21591723 44674 105357 66665654 5.796846850735 3223.741560871993 962 0.023254616408618 887.29319465792 87649.592117153 33994055.043586
347	21636397 125104 80334 66772017 5.005475363152 3235.965475363152 3228 280693.98061505 574414.72520611 956143451.71301 2.8648428363712e+14
348	21761501 114107 80334 66772017 5.005475363152 3235.965475363152 3228 25 928.19149888586 187243.05223061 42480888.258519
349	21875608 1165 6110961 64590303 120.011083622449 3000.971083622449 25 1.8660446517827 1.8660446517827 46.651116294568 87.053066061174
350	21876773 1240 6110961 64590303 120.011083622449 3000.971083622449 25 0.0083305564811729 0.0083305564811729 0.20826391202932 0.0017349542821503
351	21878013 124527 80423 66772548 5.011199942449 3236.011446022447 3232 2077600 2089367.2027084 6714832510.1173 1.3950797195938e+16
352	22002540 111615 80423 66772548 5.011199942449 3236.011446022447 3232 175 176 565627.95669434 98989812.757184
353	22114155 124542 80336 66772550 5.005475363152 3236.011446022447 3232 2363172.5399351 2650624 7672232978.767 1.8215855788617e+16
354	22238697 111638 80336 66772550 5.005475363152 3236.011446022447 3232 199.997676027 1098 753225.21285723 207239387.43759
355	22350335 35749 302983 66665652 8.621560871993 3223.741560871993 775 21.027520560534 10646375.246464 1019028225.6369 4.8000150032011e+15
356	22386084 35800 302983 66665652 8.621560871993 3223.741560871993 775 0.06571100175167 887.29319465792 85276.821560757 33582665.416982
357	22421884 35800 302829 66665581 8.611524205327 3223.731524205327 775 21.027524245173 10670532.847647 1160525079.3231 6.7238552380807e+15
358	22457684 35854 302829 66665581 8.611524205327 3223.731524205327 775 0.065711013266166 889.30632966729 97078.515572346 47004055.64409
359	22493538 124939 80488 66773742 5.016432029818 3236.142204609115 3232 2352278.2475933 2650944 7672203436.8822 1.8215728091965e+16
360	22618477 112242 80488 66773742 5.016432029818 3236.142204609115 3232 200 1099 753195.39804486 207296059.10709
361	22730719 121263 80232 66772340 5.002261634543 3236.002261634543 3232 285376 296800 959246176 2.8470100490138e+14
362	22851982 108335 80232 66772340 5.002261634543 3236.002261634543 3232 49 50 161599 8079901
363	22960317 121263 80229 66772337 5.002261634543 3236.002261634543 3232 285600 285600 923059200 2.6362570752e+14
364	23081580 108335 80229 66772337 5.002261634543 3236.002261634543 3232 25 25 80800 2020000
365	23189915 86360 96556 66755473 5.808481528219 3234.010112483131 1870 120.77801384439 288960 32119229.914454 3438722871110.4
366	23276275 86587 96556 66755473 5.808481528219 3234.010112483131 1870 0.2830734699478 903 98767.1944292 33400294.879589
367	23362862 85580 96872 66755819 5.831811124435 3234.033442079347 1854 66.427903602902 10671236.298946 1247247810.3934 6.5019547751149e+15
368	23448442 85910 96872 66755819 5.831811124435 3234.033442079347 1854 0.18871563523552 891.30477085755 107449.32200572 45780354.61537
369	23534352 124867 80535 66774169 5.025218609113 3236.182204609115 3232 2019993.2560567 2088775.3839213 6714781106.5071 1.3950598736348e+16
370	23659219 112173 80535 66774169 5.025218609113 3236.182204609115 3232 170.21024188491 175.93054535325 565598.1630662 98979463.618998
375	23771392 124867 80540 66774174 5.025218609113 3236.182204609115 3232 2019993.2560567 2088775.3839213 6714781106.5071 1.3950598736348e+16
376	23896259 112173 80540 66774174 5.025218609113 3236.182204609115 3232 170.21024188491 175.93054535325 565598.1630662 98979463.618998
377	24008432 121264 80577 66772685 5.037261634543 3236.037261634543 3232 285600 285600 923059200 2.6362570752e+14
378	24129696 108336 80577 66772685 5.037261634543 3236.037261634543 3232 25 25 80800 2020000
379	24238032 121263 80392 66772500 5.007261634543 3236.007261634543 3232 285376 296800 959246176 2.8470100490138e+14
380	24359295 108335 80392 66772500 5.007261634543 3236.007261634543 3232 49 50 161599 8079901
381	24467630 85639 96746 66755747 5.825666687907 3234.027297642819 1854 66.427907614417 11912395.719293 1275814734.0263 6.7963894042036e+15
382	24553269 85973 96746 66755747 5.825666687907 3234.027297642819 1854 0.18871564663187 996.46838752605 109832.61082382 47844575.168827
383	24639242 86377 96745 66755746 5.825666687907 3234.027297642819 1870 120.77801384439 288960 32119236.51943 3438724900130.3
384	24725619 86600 96745 66755746 5.825666687907 3234.027297642819 1870 0.2830734699478 903 98767.214995931 33400314.589053
385	24812219 124495 80399 66772507 5.011077812449 3236.011077812449 3232 2077600 2077824 6714809024 1.3950699329509e+16
386	24936714 111567 80399 66772507 5.011077812449 3236.011077812449 3232 175 176 565626 98989126
387	25048281 1165 6110968 64590310 120.011089432449 3000.971089432449 25 1.8660446517827 1.8660446517827 46.651116294568 87.053066061174
388	25049446 1240 6110968 64590310 120.011089432449 3000.971089432449 25 0.0083305564811729 0.0083305564811729 0.20826391202932 0.0017349542821503
389	25050686 36187 298786 66665011 8.57250477185 3223.693221815957 781 26.899599742699 262515.23475302 27515288.085783 3397436082192.6
390	25086873 36241 298786 66665011 8.57250477185 3223.693221815957 781 0.084061249195935 820.3601086032 85963.598027751 33158731.986389
391	25123114 44596 105615 66665726 5.797935070787 3223.741636872045 962 5.2091566927646 10270541.005578 1040742937.8446 4.7737529312664e+15
392	25167710 44825 105615 66665726 5.797935070787 3223.741636872045 962 0.023255163806985 855.9737475411 87301.948614242 33430691.436541
399	25212535 6795 110977 65501404 5.796775035326 3140.635014578041 184 5.3679193241209 202.66666666667 9825.8982349733 968390.4731533
400	25219330 8824 110977 65501404 5.796775035326 3140.635014578041 184 0.013978956573232 0.66666666666667 26.698953065296 7.6407645853567
401	25228154 13209 105468 66434194 5.798037046144 3205.423209547979 285 1.8661002122131 617.73046125776 23040.398900689 4154037.4921057
402	25241363 13550 105468 66434194 5.798037046144 3205.423209547979 285 0.0083308045188086 2.7577252734722 102.85892366379 82.789331395602
409	25254913 6437 377615 66561514 6.434569420982 3196.662789114987 173 4.9364963458623 202.66666666667 9353.4672617196 975888.84850463
410	25261350 8301 377615 66561514 6.434569420982 3196.662789114987 173 0.012855459234016 0.66666666666667 25.822395419907 8.1496582720044
411	25269651 13219 105528 66434250 5.797935066417 3205.423209568252 285 1.8661002122131 617.73046125776 23040.421085981 4154034.0498315
412	25282870 13562 105528 66434250 5.797935066417 3205.423209568252 285 0.0083308045188086 2.7577252734722 102.85902270527 82.789262791603
419	25296432 6809 777662 66745180 10.916657593885 3231.208099452824 184 3.9929748819522 202.66666666667 9896.6536526422 996511.6261889
420	25303241 8817 777662 66745180 10.916657593885 3231.208099452824 184 0.010398372088417 0.66666666666667 27.108183429651 8.0463025129685
421	25312058 13168 105516 66434238 5.797935056204 3205.423209558039 284 1.8661002122131 617.73046125776 22978.528144707 4150983.2027219
422	25325226 13512 105516 66434238 5.797935056204 3205.423209558039 284 0.0083308045188086 2.7577252734722 102.58271493173 82.728459875676
429	25338738 6804 407816 66536377 7.655609484315 3194.049968652027 183 3.059235319125 202.66666666667 9757.6402963525 970883.40170027
430	25345542 8782 407816 66536377 7.655609484315 3194.049968652027 183 0.0079667586435548 0.66666666666667 26.617826697741 7.782921857896
431	25354324 13219 105498 66434220 5.797935054137 3205.423209555972 285 1.8661002122131 617.73046125776 23040.326999904 4153992.6048957
432	25367543 13561 105498 66434220 5.797935054137 3205.423209555972 285 0.0083308045188086 2.7577252734722 102.85860267814 82.788436800377
439	25381104 6496 874423 66566804 25.574926411812 3197.200610983764 174 3.2738711292116 202.66666666667 9618.7411879414 1041008.6734399
440	25387600 8363 874423 66566804 25.574926411812 3197.200610983764 174 0.0085257060656551 0.66666666666667 26.752205130869 8.9176526795092
441	25395963 13173 105486 66434212 5.797935052723 3205.423209554558 285 1.8661002122131 617.73046125776 23040.335260178 4153995.5955246
442	25409136 13524 105486 66434212 5.797935052723 3205.423209554558 285 0.0083308045188086 2.7577252734722 102.85863955437 82.788496403154
449	25422660 6377 347000 66433995 5.168104111779 3183.521169766965 173 5.0319818892342 202.66666666667 9209.7887412586 931101.1346499
450	25429037 8302 347000 66433995 5.168104111779 3183.521169766965 173 0.013104119503214 0.66666666666667 25.185237443942 7.5455467308144
451	25437339 13167 105492 66434317 5.797935053098 3205.423209554933 284 1.8661002122131 617.73046125776 22978.49339466 4150936.5392139
452	25450506 13507 105492 66434317 5.797935053098 3205.423209554933 284 0.0083308045188086 2.7577252734722 102.58255979759 82.727529879104
459	25464013 6465 535965 66361771 13.257243456347 3177.453810875874 174 4.3491290182799 202.66666666667 9537.410636256 1015127.420424
460	25470478 8353 535965 66361771 13.257243456347 3177.453810875874 174 0.011325856818437 0.66666666666667 26.379332965864 8.5673351798956
461	25478831 13203 105462 66434188 5.797935041645 3205.42320954348 285 1.8661002122131 617.73046125776 23040.370034167 4154024.5188927
462	25492034 13550 105462 66434188 5.797935041645 3205.42320954348 285 0.0083308045188086 2.7577252734722 102.85879479539 82.789072841452
469	25505584 6786 832497 66633493 23.080159391462 3214.422049516917 183 5.2917960276932 202.66666666667 10102.346945345 1083004.7140026
470	25512370 8796 832497 66633493 23.080159391462 3214.422049516917 183 0.013780718822118 0.66666666666667 27.97740266689 9.1904929729308
471	25521166 13214 105522 66434244 5.797935066388 3205.423293568223 285 1.8661002122131 617.73046125776 23040.400373634 4154038.6226252
472	25534380 13555 105522 66434244 5.797935066388 3205.423293568223 285 0.0083308045188086 2.7577252734722 102.85893023944 82.789353926682
479	25547935 6799 436726 66621524 11.851722441049 3213.228957249961 183 2.7985442155905 202.66666666667 10024.75220576 1041995.7617893
480	25554734 8777 436726 66621524 11.851722441049 3213.228957249961 183 0.0072878755614335 0.66666666666667 27.61442910579 8.6355573287633
481	25563511 13166 105534 66434256 5.797935069322 3205.423209571157 284 1.8661002122131 617.73046125776 22978.581710091 4151014.4166971
482	25576677 13508 105534 66434256 5.797935069322 3205.423209571157 284 0.0083308045188086 2.7577252734722 102.58295406291 82.729081965423
489	25590185 6825 898825 66749649 28.116830800795 3210.657036880408 184 4.1394192001342 202.66666666667 9960.405692261 1017337.3924694
490	25597010 8840 898825 66749649 28.116830800795 3210.657036880408 184 0.01077973750035 0.66666666666667 27.307393157241 8.3019026744452
491	25605850 13185 105474 66434200 5.79793504693 3205.423209548765 285 1.8661002122131 617.73046125776 23040.362134662 4154010.5208378
492	25619035 13539 105474 66434200 5.79793504693 3205.423209548765 285 0.0083308045188086 2.7577252734722 102.85875952974 82.78879386236
499	25632574 6774 1547964 66625542 52.415689204889 3213.633210942583 183 5.1580835618257 202.66666666667 10114.965404357 1084247.768498
500	25639348 8780 1547964 66625542 52.415689204889 3213.633210942583 183 0.013432509275588 0.66666666666667 28.033755190513 9.2076499402557
501	25648128 13216 105548 66434274 5.797935076101 3205.423209577936 285 1.8661002122131 617.73046125776 23040.460933886 4154060.8547246
502	25661344 13563 105548 66434274 5.797935076101 3205.423209577936 285 0.0083308045188086 2.7577252734722 102.85920059771 82.789797009021
509	25674907 6793 686223 66755303 10.012728264814 3229.234505135582 185 4.4349808066785 202.66666666667 9912.136778124 1008378.1387216
510	25681700 8862 686223 66755303 10.012728264814 3229.234505135582 185 0.011549429184059 0.66666666666667 27.064027561467 8.1796248037759
511	25690562 13190 105504 66434226 5.79793505428 3205.423209556115 285 1.8661002122131 617.77305246676 23040.410871366 4154076.2526429
512	25703752 13533 105504 66434226 5.79793505428 3205.423209556115 285 0.0083308045188086 2.7579154127981 102.85897710431 82.790103887174
519	25717285 6541 776607 65978851 10.852753966429 3164.611597540648 177 5.3787853465135 202.66666666667 9454.2224418133 967244.03711214
520	25723826 8484 776607 65978851 10.852753966429 3164.611597540648 177 0.014007253506545 0.66666666666667 25.899988454042 7.9122349001423
521	25732310 13213 105510 66434232 5.797935055677 3205.423209557512 285 1.8661002122131 617.6878759211 23040.354302682 4153979.8146378
522	25745523 13561 105510 66434232 5.797935055677 3205.423209557512 285 0.0083308045188086 2.757535160362 102.85872456554 82.788181892495