file 44883048 1471641900                                        
version 2
run _14to17on-8-20160819-23:20:16-13232
attr configname _14to17on
attr datetime 20160819-23:20:16
attr experiment _14to17on
attr inifile omnetpp.ini
attr iterationvars $0=14
attr iterationvars2 "$0=14, $repetition=8"
attr measurement $0=14
attr network University
attr processid 13232
attr repetition 8
attr replication #8
attr resultdir results
attr runnumber 8
attr seedset 8

vector 306  University.whostVideoConf.udpApp[0]  sentPk:vector(packetBytes)  ETV
attr interpolationmode  none
attr source  sentPk
attr title  "packets sent, vector(packetBytes)"
vector 119  University.CCTV.udpApp[0]  sentPk:vector(packetBytes)  ETV
attr interpolationmode  none
attr source  sentPk
attr title  "packets sent, vector(packetBytes)"
vector 83  University.profLaptop.udpApp[0]  sentPk:vector(packetBytes)  ETV
attr interpolationmode  none
attr source  sentPk
attr title  "packets sent, vector(packetBytes)"
vector 82  University.profLaptop.udpApp[0]  rcvdPk:vector(packetBytes)  ETV
attr interpolationmode  none
attr source  rcvdPk
attr title  "packets received, vector(packetBytes)"
vector 84  University.profLaptop.udpApp[0]  rcvdPkLifetime:vector  ETV
attr interpolationmode  none
attr source  messageAge(rcvdPk)
attr title  "received packet lifetime, vector"
attr unit  s
vector 64  University.ccTVMonitoringHost.udpApp[0]  rcvdPk:vector(packetBytes)  ETV
attr interpolationmode  none
attr source  rcvdPk
attr title  "packets received, vector(packetBytes)"
vector 65  University.ccTVMonitoringHost.udpApp[0]  endToEndDelay:vector  ETV
attr interpolationmode  none
attr source  messageAge(rcvdPk)
attr title  "end-to-end delay, vector"
attr unit  s
vector 296  University.whttpStudents[13].tcpApp[0]  numActiveSessions:vector  ETV
attr interpolationmode  sample-hold
attr source  sum(connect)
attr title  "number of active sessions, vector"
vector 529  University.whostVideoConf.wlan[0].outputHook[0]  "thruput (bit/sec)"  ETV
vector 530  University.whostVideoConf.wlan[0].outputHook[0]  packet/sec  ETV
vector 551  University.accessPoint.wlan[0].inputHook[0]  "thruput (bit/sec)"  ETV
vector 552  University.accessPoint.wlan[0].inputHook[0]  packet/sec  ETV
vector 559  University.accessPoint.eth[0].outputHook[0]  "thruput (bit/sec)"  ETV
vector 560  University.accessPoint.eth[0].outputHook[0]  packet/sec  ETV
vector 347  University.remoteR.eth[0].inputHook[0]  "thruput (bit/sec)"  ETV
vector 348  University.remoteR.eth[0].inputHook[0]  packet/sec  ETV
vector 353  University.remoteR.ppp[0].outputHook[0]  "thruput (bit/sec)"  ETV
vector 354  University.remoteR.ppp[0].outputHook[0]  packet/sec  ETV
vector 385  University.CCTV.eth[0].outputHook[0]  "thruput (bit/sec)"  ETV
vector 386  University.CCTV.eth[0].outputHook[0]  packet/sec  ETV
vector 351  University.remoteR.eth[1].inputHook[0]  "thruput (bit/sec)"  ETV
vector 352  University.remoteR.eth[1].inputHook[0]  packet/sec  ETV
vector 377  University.profLaptop.ppp[0].outputHook[0]  "thruput (bit/sec)"  ETV
vector 378  University.profLaptop.ppp[0].outputHook[0]  packet/sec  ETV
vector 359  University.mainR.ppp[0].inputHook[0]  "thruput (bit/sec)"  ETV
vector 360  University.mainR.ppp[0].inputHook[0]  packet/sec  ETV
vector 363  University.mainR.ppp[1].inputHook[0]  "thruput (bit/sec)"  ETV
vector 364  University.mainR.ppp[1].inputHook[0]  packet/sec  ETV
vector 361  University.mainR.ppp[1].outputHook[0]  "thruput (bit/sec)"  ETV
vector 362  University.mainR.ppp[1].outputHook[0]  packet/sec  ETV
vector 379  University.profLaptop.ppp[0].inputHook[0]  "thruput (bit/sec)"  ETV
vector 380  University.profLaptop.ppp[0].inputHook[0]  packet/sec  ETV
vector 369  University.mainR.ppp[3].outputHook[0]  "thruput (bit/sec)"  ETV
vector 370  University.mainR.ppp[3].outputHook[0]  packet/sec  ETV
vector 375  University.ccTVMonitoringHost.ppp[0].inputHook[0]  "thruput (bit/sec)"  ETV
vector 376  University.ccTVMonitoringHost.ppp[0].inputHook[0]  packet/sec  ETV
vector 260  University.whttpStudents[10].tcpApp[0]  numActiveSessions:vector  ETV
attr interpolationmode  sample-hold
attr source  sum(connect)
attr title  "number of active sessions, vector"
vector 365  University.mainR.ppp[2].outputHook[0]  "thruput (bit/sec)"  ETV
vector 366  University.mainR.ppp[2].outputHook[0]  packet/sec  ETV
vector 176  University.whttpStudents[3].tcpApp[0]  numActiveSessions:vector  ETV
attr interpolationmode  sample-hold
attr source  sum(connect)
attr title  "number of active sessions, vector"
vector 345  University.remoteR.eth[0].outputHook[0]  "thruput (bit/sec)"  ETV
vector 346  University.remoteR.eth[0].outputHook[0]  packet/sec  ETV
vector 561  University.accessPoint.eth[0].inputHook[0]  "thruput (bit/sec)"  ETV
vector 562  University.accessPoint.eth[0].inputHook[0]  packet/sec  ETV
vector 549  University.accessPoint.wlan[0].outputHook[0]  "thruput (bit/sec)"  ETV
vector 550  University.accessPoint.wlan[0].outputHook[0]  packet/sec  ETV
vector 451  University.whttpStudents[6].wlan[0].inputHook[0]  "thruput (bit/sec)"  ETV
vector 452  University.whttpStudents[6].wlan[0].inputHook[0]  packet/sec  ETV
vector 461  University.whttpStudents[7].wlan[0].inputHook[0]  "thruput (bit/sec)"  ETV
vector 462  University.whttpStudents[7].wlan[0].inputHook[0]  packet/sec  ETV
vector 481  University.whttpStudents[9].wlan[0].inputHook[0]  "thruput (bit/sec)"  ETV
vector 482  University.whttpStudents[9].wlan[0].inputHook[0]  packet/sec  ETV
vector 541  University.whostFTP.wlan[0].inputHook[0]  "thruput (bit/sec)"  ETV
vector 542  University.whostFTP.wlan[0].inputHook[0]  packet/sec  ETV
vector 531  University.whostVideoConf.wlan[0].inputHook[0]  "thruput (bit/sec)"  ETV
vector 532  University.whostVideoConf.wlan[0].inputHook[0]  packet/sec  ETV
vector 431  University.whttpStudents[4].wlan[0].inputHook[0]  "thruput (bit/sec)"  ETV
vector 432  University.whttpStudents[4].wlan[0].inputHook[0]  packet/sec  ETV
vector 391  University.whttpStudents[0].wlan[0].inputHook[0]  "thruput (bit/sec)"  ETV
vector 392  University.whttpStudents[0].wlan[0].inputHook[0]  packet/sec  ETV
vector 521  University.whttpStudents[13].wlan[0].inputHook[0]  "thruput (bit/sec)"  ETV
vector 522  University.whttpStudents[13].wlan[0].inputHook[0]  packet/sec  ETV
vector 401  University.whttpStudents[1].wlan[0].inputHook[0]  "thruput (bit/sec)"  ETV
vector 402  University.whttpStudents[1].wlan[0].inputHook[0]  packet/sec  ETV
vector 441  University.whttpStudents[5].wlan[0].inputHook[0]  "thruput (bit/sec)"  ETV
vector 442  University.whttpStudents[5].wlan[0].inputHook[0]  packet/sec  ETV
vector 511  University.whttpStudents[12].wlan[0].inputHook[0]  "thruput (bit/sec)"  ETV
vector 512  University.whttpStudents[12].wlan[0].inputHook[0]  packet/sec  ETV
vector 471  University.whttpStudents[8].wlan[0].inputHook[0]  "thruput (bit/sec)"  ETV
vector 472  University.whttpStudents[8].wlan[0].inputHook[0]  packet/sec  ETV
vector 411  University.whttpStudents[2].wlan[0].inputHook[0]  "thruput (bit/sec)"  ETV
vector 412  University.whttpStudents[2].wlan[0].inputHook[0]  packet/sec  ETV
vector 501  University.whttpStudents[11].wlan[0].inputHook[0]  "thruput (bit/sec)"  ETV
vector 502  University.whttpStudents[11].wlan[0].inputHook[0]  packet/sec  ETV
vector 491  University.whttpStudents[10].wlan[0].inputHook[0]  "thruput (bit/sec)"  ETV
vector 492  University.whttpStudents[10].wlan[0].inputHook[0]  packet/sec  ETV
vector 421  University.whttpStudents[3].wlan[0].inputHook[0]  "thruput (bit/sec)"  ETV
vector 422  University.whttpStudents[3].wlan[0].inputHook[0]  packet/sec  ETV
vector 383  University.Server.ppp[0].inputHook[0]  "thruput (bit/sec)"  ETV
vector 384  University.Server.ppp[0].inputHook[0]  packet/sec  ETV
vector 381  University.Server.ppp[0].outputHook[0]  "thruput (bit/sec)"  ETV
vector 382  University.Server.ppp[0].outputHook[0]  packet/sec  ETV
vector 367  University.mainR.ppp[2].inputHook[0]  "thruput (bit/sec)"  ETV
vector 368  University.mainR.ppp[2].inputHook[0]  packet/sec  ETV
vector 152  University.whttpStudents[1].tcpApp[0]  numActiveSessions:vector  ETV
attr interpolationmode  sample-hold
attr source  sum(connect)
attr title  "number of active sessions, vector"
vector 236  University.whttpStudents[8].tcpApp[0]  numActiveSessions:vector  ETV
attr interpolationmode  sample-hold
attr source  sum(connect)
attr title  "number of active sessions, vector"
vector 519  University.whttpStudents[13].wlan[0].outputHook[0]  "thruput (bit/sec)"  ETV
vector 520  University.whttpStudents[13].wlan[0].outputHook[0]  packet/sec  ETV
vector 164  University.whttpStudents[2].tcpApp[0]  numActiveSessions:vector  ETV
attr interpolationmode  sample-hold
attr source  sum(connect)
attr title  "number of active sessions, vector"
vector 489  University.whttpStudents[10].wlan[0].outputHook[0]  "thruput (bit/sec)"  ETV
vector 490  University.whttpStudents[10].wlan[0].outputHook[0]  packet/sec  ETV
vector 188  University.whttpStudents[4].tcpApp[0]  numActiveSessions:vector  ETV
attr interpolationmode  sample-hold
attr source  sum(connect)
attr title  "number of active sessions, vector"
vector 248  University.whttpStudents[9].tcpApp[0]  numActiveSessions:vector  ETV
attr interpolationmode  sample-hold
attr source  sum(connect)
attr title  "number of active sessions, vector"
vector 419  University.whttpStudents[3].wlan[0].outputHook[0]  "thruput (bit/sec)"  ETV
vector 420  University.whttpStudents[3].wlan[0].outputHook[0]  packet/sec  ETV
vector 399  University.whttpStudents[1].wlan[0].outputHook[0]  "thruput (bit/sec)"  ETV
vector 400  University.whttpStudents[1].wlan[0].outputHook[0]  packet/sec  ETV
vector 469  University.whttpStudents[8].wlan[0].outputHook[0]  "thruput (bit/sec)"  ETV
vector 470  University.whttpStudents[8].wlan[0].outputHook[0]  packet/sec  ETV
vector 140  University.whttpStudents[0].tcpApp[0]  numActiveSessions:vector  ETV
attr interpolationmode  sample-hold
attr source  sum(connect)
attr title  "number of active sessions, vector"
vector 439  University.whttpStudents[5].wlan[0].outputHook[0]  "thruput (bit/sec)"  ETV
vector 440  University.whttpStudents[5].wlan[0].outputHook[0]  packet/sec  ETV
vector 138  University.whttpStudents[0].tcpApp[0]  sentPk:vector(packetBytes)  ETV
attr interpolationmode  none
attr source  sentPk
attr title  "packets sent, vector(packetBytes)"
vector 409  University.whttpStudents[2].wlan[0].outputHook[0]  "thruput (bit/sec)"  ETV
vector 410  University.whttpStudents[2].wlan[0].outputHook[0]  packet/sec  ETV
vector 101  University.Server.tcpApp[0]  rcvdPk:vector(packetBytes)  ETV
attr interpolationmode  none
attr source  rcvdPk
attr title  "packets received, vector(packetBytes)"
vector 103  University.Server.tcpApp[0]  endToEndDelay:vector  ETV
attr interpolationmode  none
attr source  messageAge(rcvdPk)
attr title  "end-to-end delay, vector"
attr unit  s
vector 102  University.Server.tcpApp[0]  sentPk:vector(packetBytes)  ETV
attr interpolationmode  none
attr source  sentPk
attr title  "packets sent, vector(packetBytes)"
vector 137  University.whttpStudents[0].tcpApp[0]  rcvdPk:vector(packetBytes)  ETV
attr interpolationmode  none
attr source  rcvdPk
attr title  "packets received, vector(packetBytes)"
vector 139  University.whttpStudents[0].tcpApp[0]  endToEndDelay:vector  ETV
attr interpolationmode  none
attr source  messageAge(rcvdPk)
attr title  "end-to-end delay, vector"
attr unit  s
vector 389  University.whttpStudents[0].wlan[0].outputHook[0]  "thruput (bit/sec)"  ETV
vector 390  University.whttpStudents[0].wlan[0].outputHook[0]  packet/sec  ETV
vector 429  University.whttpStudents[4].wlan[0].outputHook[0]  "thruput (bit/sec)"  ETV
vector 430  University.whttpStudents[4].wlan[0].outputHook[0]  packet/sec  ETV
vector 479  University.whttpStudents[9].wlan[0].outputHook[0]  "thruput (bit/sec)"  ETV
vector 480  University.whttpStudents[9].wlan[0].outputHook[0]  packet/sec  ETV
vector 499  University.whttpStudents[11].wlan[0].outputHook[0]  "thruput (bit/sec)"  ETV
vector 500  University.whttpStudents[11].wlan[0].outputHook[0]  packet/sec  ETV
vector 357  University.mainR.ppp[0].outputHook[0]  "thruput (bit/sec)"  ETV
vector 358  University.mainR.ppp[0].outputHook[0]  packet/sec  ETV
vector 355  University.remoteR.ppp[0].inputHook[0]  "thruput (bit/sec)"  ETV
vector 356  University.remoteR.ppp[0].inputHook[0]  packet/sec  ETV
vector 539  University.whostFTP.wlan[0].outputHook[0]  "thruput (bit/sec)"  ETV
vector 540  University.whostFTP.wlan[0].outputHook[0]  packet/sec  ETV
vector 212  University.whttpStudents[6].tcpApp[0]  numActiveSessions:vector  ETV
attr interpolationmode  sample-hold
attr source  sum(connect)
attr title  "number of active sessions, vector"
vector 449  University.whttpStudents[6].wlan[0].outputHook[0]  "thruput (bit/sec)"  ETV
vector 450  University.whttpStudents[6].wlan[0].outputHook[0]  packet/sec  ETV
vector 224  University.whttpStudents[7].tcpApp[0]  numActiveSessions:vector  ETV
attr interpolationmode  sample-hold
attr source  sum(connect)
attr title  "number of active sessions, vector"
vector 459  University.whttpStudents[7].wlan[0].outputHook[0]  "thruput (bit/sec)"  ETV
vector 460  University.whttpStudents[7].wlan[0].outputHook[0]  packet/sec  ETV
vector 284  University.whttpStudents[12].tcpApp[0]  numActiveSessions:vector  ETV
attr interpolationmode  sample-hold
attr source  sum(connect)
attr title  "number of active sessions, vector"
vector 509  University.whttpStudents[12].wlan[0].outputHook[0]  "thruput (bit/sec)"  ETV
vector 510  University.whttpStudents[12].wlan[0].outputHook[0]  packet/sec  ETV
vector 324  University.whostFTP.tcpApp[0]  numActiveSessions:vector  ETV
attr interpolationmode  sample-hold
attr source  sum(connect)
attr title  "number of active sessions, vector"
vector 200  University.whttpStudents[5].tcpApp[0]  numActiveSessions:vector  ETV
attr interpolationmode  sample-hold
attr source  sum(connect)
attr title  "number of active sessions, vector"
vector 272  University.whttpStudents[11].tcpApp[0]  numActiveSessions:vector  ETV
attr interpolationmode  sample-hold
attr source  sum(connect)
attr title  "number of active sessions, vector"
vector 349  University.remoteR.eth[1].outputHook[0]  "thruput (bit/sec)"  ETV
vector 350  University.remoteR.eth[1].outputHook[0]  packet/sec  ETV
vector 387  University.CCTV.eth[0].inputHook[0]  "thruput (bit/sec)"  ETV
vector 388  University.CCTV.eth[0].inputHook[0]  packet/sec  ETV
64	14410 2854359 67056 58298077 5.025862519928 3223.825862519928 80471 10240 10240 824023040 8437995929600
65	2868769 3578588 67056 58298077 5.025862519928 3223.825862519928 80471 0.017080129996 0.018068129995 1374.5298473102 23.478451640624
82	6447357 2773684 66979 58298000 5.019183334693 3223.819183334693 80471 1400 1400 112659400 157723160000
83	9221041 2693422 66932 58297953 5.00957758286 3223.80957758286 80471 1400 1400 112659400 157723160000
84	11914463 3578177 66979 58298000 5.019183334693 3223.819183334693 80471 0.016345620932 0.097280298764 1318.8333165273 21.642031895355
101	15492640 5085 136747 57996784 11.509654172314 3208.153143066097 157 1 1 157 157
102	15497725 5891 136747 57996784 11.509654172314 3208.153143066097 157 7843 3958171 115059460 1.6551587830987e+14
103	15503616 7123 136747 57996784 11.509654172314 3208.153143066097 157 0.072818379368 0.079016571516 11.496708766877 0.84211701910467
119	15510739 2934835 66859 58297880 5.008782389932 3223.808782389932 80471 10240 10240 824023040 8437995929600
137	18445574 5898 256390 58174459 12.341322635613 3211.089890790898 157 7843 3958171 115059460 1.6551587830987e+14
138	18451472 5086 135348 57995657 11.436835792946 3208.080315686729 157 1 1 157 157
139	18456558 7163 256390 58174459 12.341322635613 3211.089890790898 157 0.256406832387 19.461585861084 863.43637526204 11243.852717252
140	18463721 10170 133716 58174459 11.352672824347 3211.089890790898 314 0 1 157 157
152	18473891 1155 99797 57397502 8.231827951726 3170.355775919664 35 1 35 630 14910
164	18475046 1186 103246 57331632 8.444126150676 3163.693352296265 36 1 36 666 16206
176	18476232 1222 94210 57229452 7.710589575451 3153.231296446219 37 1 37 703 17575
188	18477454 1124 116669 56994940 9.762577975654 3132.771304178659 34 1 34 595 13685
200	18478578 1223 1497307 57177102 81.878011758275 3147.946127909074 37 1 37 703 17575
212	18479801 1155 540691 57190019 21.462823345646 3149.211621676517 35 1 35 630 14910
224	18480956 1191 588931 57976447 25.578166157945 3206.148222372371 36 1 36 666 16206
236	18482147 1225 101381 57312104 8.329286692189 3161.734759502548 37 1 37 703 17575
248	18483372 1119 118473 57140342 9.87029392209 3144.21702411451 34 1 34 595 13685
260	18484491 1189 78073 57945488 6.09189595231 3202.943670045285 36 1 36 666 16206
272	18485680 1196 1532038 58248980 85.384101904058 3218.762161144803 36 1 36 666 16206
284	18486876 1160 1179424 57889101 61.004334909983 3198.04604625718 35 1 35 630 14910
296	18488036 1189 70201 57159173 5.363373336896 3146.128941289134 36 1 36 666 16206
306	18489225 2854364 66704 58297725 5.002837713761 3223.802837713761 80471 1400 1400 112659400 157723160000
324	21343589 852 1316607 57197602 75 3150 42 1 42 903 25585
345	21344441 52136 94296 58175715 6.091967802616 3210.156575844854 1123 6.8195490122077 10669072.964579 785490362.71015 3.1116703083216e+15
346	21396577 52400 94296 58175715 6.091967802616 3210.156575844854 1123 0.03044441523307 889.96070858091 65941.826801852 21774914.991076
347	21448977 122587 77146 58293227 5.003226668027 3222.323226668027 3215 275787.53101732 547240.90056733 944609845.76994 2.7999988391069e+14
348	21571564 110782 77146 58293227 5.003226668027 3222.323226668027 3215 25 843.32332763443 162453.44268953 32018055.927693
349	21682346 1164 5067057 56869712 120.048788199932 3001.008788199932 25 1.8660446517827 1.8660446517827 46.651116294568 87.053066061174
350	21683510 1239 5067057 56869712 120.048788199932 3001.008788199932 25 0.0083305564811729 0.0083305564811729 0.20826391202932 0.0017349542821503
351	21684749 123815 77230 58290279 5.008904519932 3222.009027559931 3218 2077600 2089367.2027084 6685734367.0587 1.3890318358084e+16
352	21808564 110951 77230 58290279 5.008904519932 3222.009027559931 3218 175 176 563176.97834717 98560719.378592
353	21919515 123831 77148 58290281 5.003226668027 3222.009027559931 3218 2363200 2645760 7631272828.8946 1.8099476525349e+16
354	22043346 110977 77148 58290281 5.003226668027 3222.009027559931 3218 200 1083 725826.14587564 187314004.77955
355	22154323 42602 280603 58175713 11.436759796996 3210.156575844854 917 16.787578060183 10669072.964579 765261678.49458 3.0935674898531e+15
356	22196925 42638 280603 58175713 11.436759796996 3210.156575844854 917 0.052461181438071 889.96070858091 64042.32227689 21633275.179883
357	22239563 42612 280528 58175585 11.42672313033 3210.145571178188 917 16.787580408706 10102910.789871 859891992.62132 4.6872790591986e+15
358	22282175 42646 280528 58175585 11.42672313033 3210.145571178188 917 0.052461188777206 842.3215670484 71934.947450347 32748716.683157
359	22324821 123839 77302 58291179 5.014183334693 3222.102923186596 3218 2340197.6423422 2643200 7631284116.467 1.8099550897199e+16
360	22448660 111133 77302 58291179 5.014183334693 3222.102923186596 3218 200 1075 725802.91078299 187496605.15582
361	22559793 117363 77312 58290352 5.01457758286 3222.01457758286 3218 285376 308224 955102400 2.8349005325312e+14
362	22677156 104491 77312 58290352 5.01457758286 3222.01457758286 3218 49 51 160900 8045120
363	22781647 117363 77309 58290349 5.01457758286 3222.01457758286 3218 285600 285600 919060800 2.6248376448e+14
364	22899010 104491 77309 58290349 5.01457758286 3222.01457758286 3218 25 25 80450 2011250
365	23003501 91122 93853 58278484 5.375168324605 3218.772273656653 1970 61.918519230883 284160 25480731.626012 2409862581948.7
366	23094623 91274 93853 58278484 5.375168324605 3218.772273656653 1970 0.13821098042608 888 77982.530534819 23407920.933097
367	23185897 89206 95069 58278961 5.437521076072 3218.83462640812 1931 89.287331510331 10102910.789871 952763217.36229 4.8223898193142e+15
368	23275103 89598 95069 58278961 5.437521076072 3218.83462640812 1931 0.25365719179071 842.3215670484 82888.866136128 33900351.559512
369	23364701 123797 77362 58291181 5.022923186596 3222.102923186596 3218 2019993.2560567 2087723.8321821 6685720603.464 1.3890268861643e+16
370	23488498 111055 77362 58291181 5.022923186596 3222.102923186596 3218 170.21024188491 175.8419766769 563150.31624121 98551414.842774
375	23599553 123797 77367 58291186 5.022923186596 3222.102923186596 3218 2019993.2560567 2087723.8321821 6685720603.464 1.3890268861643e+16
376	23723350 111055 77367 58291186 5.022923186596 3222.102923186596 3218 170.21024188491 175.8419766769 563150.31624121 98551414.842774
377	23834405 117363 77279 58290319 5.00957758286 3222.00957758286 3218 285600 285600 919060800 2.6248376448e+14
378	23951768 104491 77279 58290319 5.00957758286 3222.00957758286 3218 25 25 80450 2011250
379	24056259 117363 77325 58290365 5.01957758286 3222.01957758286 3218 285376 308224 955102400 2.8349005325312e+14
380	24173622 104491 77325 58290365 5.01957758286 3222.01957758286 3218 49 51 160900 8045120
381	24278113 88859 95064 58278949 5.437181376124 3218.834286708172 1931 89.287331510331 10102910.789871 952776179.75102 4.8231573053537e+15
382	24366972 89292 95064 58278949 5.437181376124 3218.834286708172 1931 0.25365719179071 842.3215670484 82889.961982574 33905741.15137
383	24456264 90806 95060 58278948 5.437181376124 3218.834286708172 1970 61.918524707888 284160 25480734.665864 2409863261132
384	24547070 90970 95060 58278948 5.437181376124 3218.834286708172 1970 0.13821099265154 888 77982.539985791 23407927.508834
385	24638040 123799 77206 58290246 5.008782389932 3222.008782389932 3218 2077600 2077824 6685722624 1.3890269424869e+16
386	24761839 110927 77206 58290246 5.008782389932 3222.008782389932 3218 175 176 563176 98560376
387	24872766 1164 5067064 56869719 120.048794009932 3001.008794009932 25 1.8660446517827 1.8660446517827 46.651116294568 87.053066061174
388	24873930 1239 5067064 56869719 120.048794009932 3001.008794009932 25 0.0083305564811729 0.0083305564811729 0.20826391202932 0.0017349542821503
389	24875169 43480 258387 58174462 11.352672824347 3210.072681737438 936 8.7957590309456 285540.03287051 21637073.342764 2083183416301.1
390	24918649 43530 258387 58174462 11.352672824347 3210.072681737438 936 0.027486746971705 892.31260272035 67599.080932019 20333608.715778
391	24962179 52147 94437 58175783 6.093056018566 3210.156984000803 1123 6.8195490122077 10625804.144986 786250206.38429 3.018267140321e+15
392	25014326 52395 94437 58175783 6.093056018566 3210.156984000803 1123 0.03044441523307 886.35437786332 66005.101163535 21118556.235301
399	25066721 6462 132234 58216329 8.231827951726 3191.355775919664 174 4.6357526863745 202.66666666667 9545.4184077488 1017263.0234224
400	25073183 8337 132234 58216329 8.231827951726 3191.355775919664 174 0.012072272620767 0.66666666666667 26.433908367025 8.5977219752858
401	25081520 13352 94449 58028735 6.09305602025 3199.283997765661 288 1.866279051032 436.6496405672 19651.655679444 2808454.6601131
402	25094872 13725 94449 58028735 6.09305602025 3199.283997765661 288 0.008331602906393 1.9493287525321 87.730605711805 55.972071510546
409	25108597 6585 135902 58028173 8.444126150676 3184.693352296265 179 4.2503510253045 202.66666666667 9756.8727836354 1019250.0827194
410	25115182 8559 135902 58028173 8.444126150676 3184.693352296265 179 0.01106862246173 0.66666666666667 26.884077149386 8.4758271530649
411	25123741 13337 94473 58029182 6.093056026057 3199.283997771468 288 1.866279051032 436.6496405672 19651.616286929 2808431.4163801
412	25137078 13706 94473 58029182 6.093056026057 3199.283997771468 288 0.008331602906393 1.9493287525321 87.730429852361 55.971608266504
419	25150784 6791 127085 57891697 7.710589575451 3174.231296446219 184 4.4100658199588 202.66666666667 9994.6302321515 1022998.7883277
420	25157575 8820 127085 57891697 7.710589575451 3174.231296446219 184 0.013007423747069 0.66666666666667 27.433584639607 8.3763360172863
421	25166395 13354 94525 58028705 6.093056011523 3199.283997756934 288 1.866279051032 436.66943125265 19651.672444579 2808475.6610983
422	25179749 13724 94525 58028705 6.093056011523 3199.283997756934 288 0.008331602906393 1.9494171038065 87.730680556156 55.972490056966
429	25193473 6262 261697 57551062 9.762577975654 3153.771304178659 169 4.7827594394354 202.66666666667 9268.2823406622 992671.83944328
430	25199735 8107 261697 57551062 9.762577975654 3153.771304178659 169 0.012455102706863 0.66666666666667 25.666726270651 8.4127637479179
431	25207842 13355 94431 58028717 6.093056017485 3199.283997762896 288 1.866279051032 436.50667987963 19651.634722122 2808394.8177217
432	25221197 13721 94431 58028717 6.093056017485 3199.283997762896 288 0.008331602906393 1.9486905351769 87.73051215233 55.970878860843
439	25234918 6926 134646 57697228 5.376579835035 3168.946127909074 188 5.4476844722614 202.66666666667 10154.468106775 1043062.9847745
440	25241844 8989 134646 57697228 5.376579835035 3168.946127909074 188 0.014186678313181 0.66666666666667 27.918431816113 8.6107036353381
441	25250833 13355 94455 58028741 6.093056021303 3199.283997766714 288 1.866279051032 436.6496405672 19651.643021365 2808433.8361264
442	25264188 13724 94455 58028741 6.093056021303 3199.283997766714 288 0.008331602906393 1.9493287525321 87.730549202523 55.971656491677
449	25277912 6403 578025 57709555 21.462823345646 3170.211621676517 174 4.2913809164853 202.66666666667 9453.7322452729 989870.22454115
450	25284315 8328 578025 57709555 21.462823345646 3170.211621676517 174 0.011175471136681 0.66666666666667 26.016851954262 8.2274306475468
451	25292643 13337 94399 58028681 6.093056006368 3199.283997751779 288 1.866279051032 436.6496405672 19651.67962203 2808476.4761319
452	25305980 13711 94399 58028681 6.093056006368 3199.283997751779 288 0.008331602906393 1.9493287525321 87.730712598348 55.97250630046
459	25319691 6535 618769 58214220 25.578166157945 3209.148222372371 177 4.5085839941578 202.66666666667 9604.6930796343 987597.33205729
460	25326226 8478 618769 58214220 25.578166157945 3209.148222372371 177 0.011741104151453 0.66666666666667 26.305914351603 8.0579356616596
461	25334704 13352 94405 58028687 6.0930560082 3199.283997753611 288 1.866279051032 436.6496405672 19651.638030428 2808442.0143206
462	25348056 13724 94405 58028687 6.0930560082 3199.283997753611 288 0.008331602906393 1.9493287525321 87.730526921553 55.971819481835
469	25361780 6824 133416 57982274 8.329286692189 3182.734759502548 184 5.3274010797406 202.66666666667 10040.991887528 1046207.7221529
470	25368604 8828 133416 57982274 8.329286692189 3182.734759502548 184 0.013873440311825 0.66666666666667 27.674397120731 8.6923783395004
471	25377432 13351 94467 58028753 6.093056025535 3199.283997770946 288 1.866279051032 436.6496405672 19651.681069224 2808472.6039483
472	25390783 13717 94467 58028753 6.093056025535 3199.283997770946 288 0.008331602906393 1.9493287525321 87.730719059036 55.972429128433
479	25404500 6252 263093 57661053 9.87029392209 3165.21702411451 169 3.7520615522136 202.66666666667 9300.8530465982 999584.97618134
480	25410752 8083 263093 57661053 9.87029392209 3165.21702411451 169 0.0097709936255562 0.66666666666667 25.823325361523 8.5068747736857
481	25418835 13357 94411 58028693 6.093056009774 3199.283997755185 288 1.866279051032 436.6496405672 19651.661834204 2808460.9217519
482	25432192 13726 94411 58028693 6.093056009774 3199.283997755185 288 0.008331602906393 1.9493287525321 87.730633188412 55.972196304047
489	25445918 6534 110281 58183444 6.09189595231 3205.943670045285 177 4.5005122851473 202.66666666667 9729.8067225611 1035120.2120302
490	25452452 8482 110281 58183444 6.09189595231 3205.943670045285 177 0.011720084075904 0.66666666666667 26.876291606979 8.7004578311572
491	25460934 13353 94485 58028767 6.093122032922 3199.283997778333 288 1.866279051032 436.6496405672 19651.676127254 2808459.7048889
492	25474287 13720 94485 58028767 6.093122032922 3199.283997778333 288 0.008331602906393 1.9493287525321 87.730696996669 55.972172052154
499	25488007 6660 270833 58278008 7.663792487812 3218.762161144803 180 3.8713066432628 202.66666666667 9607.3858501235 952391.55565625
500	25494667 8635 270833 58278008 7.663792487812 3218.762161144803 180 0.01008152771683 0.66666666666667 26.182003122134 7.5713167568404
501	25503302 13357 94479 58028761 6.0930560278 3199.283997773211 288 1.866279051032 436.6496405672 19651.663097297 2808457.5288044
502	25516659 13722 94479 58028761 6.0930560278 3199.283997773211 288 0.008331602906393 1.9493287525321 87.730638827217 55.972128683123
509	25530381 6399 1210966 58252007 61.004334909983 3207.04604625718 173 4.2802127121483 202.66666666667 9558.2059896905 1024685.7747889
510	25536780 8309 1210966 58252007 61.004334909983 3207.04604625718 173 0.011146387271219 0.66666666666667 26.502945703489 8.6982677916701
511	25545089 13355 94461 58028747 6.09305602473 3199.283997770141 288 1.866279051032 436.6496405672 19651.650473918 2808448.5978922
512	25558444 13718 94461 58028747 6.09305602473 3199.283997770141 288 0.008331602906393 1.9493287525321 87.730582472848 55.97195069141
519	25572162 6604 102206 57679482 5.363373336896 3167.128941289134 179 5.379066017469 202.66666666667 9616.3476049226 966285.71742209
520	25578766 8578 102206 57679482 5.363373336896 3167.128941289134 179 0.014007984420492 0.66666666666667 26.261043041087 7.7611179486984
521	25587344 13354 94443 58028729 6.093056020094 3199.283997765505 288 1.866279051032 436.6496405672 19651.672814492 2808460.2981676
522	25600698 13718 94443 58028729 6.093056020094 3199.283997765505 288 0.008331602906393 1.9493287525321 87.730682207551 55.972183876109
529	25614416 120581 77051 58290091 5.002837713761 3222.002837713761 3218 285600 285824 919066624 2.6248709245338e+14