file 45152565 1471641616                                        
version 2
run _14to17on-4-20160819-23:14:54-13070
attr configname _14to17on
attr datetime 20160819-23:14:54
attr experiment _14to17on
attr inifile omnetpp.ini
attr iterationvars $0=14
attr iterationvars2 "$0=14, $repetition=4"
attr measurement $0=14
attr network University
attr processid 13070
attr repetition 4
attr replication #4
attr resultdir results
attr runnumber 4
attr seedset 4

vector 83  University.profLaptop.udpApp[0]  sentPk:vector(packetBytes)  ETV
attr interpolationmode  none
attr source  sentPk
attr title  "packets sent, vector(packetBytes)"
vector 306  University.whostVideoConf.udpApp[0]  sentPk:vector(packetBytes)  ETV
attr interpolationmode  none
attr source  sentPk
attr title  "packets sent, vector(packetBytes)"
vector 64  University.ccTVMonitoringHost.udpApp[0]  rcvdPk:vector(packetBytes)  ETV
attr interpolationmode  none
attr source  rcvdPk
attr title  "packets received, vector(packetBytes)"
vector 65  University.ccTVMonitoringHost.udpApp[0]  endToEndDelay:vector  ETV
attr interpolationmode  none
attr source  messageAge(rcvdPk)
attr title  "end-to-end delay, vector"
attr unit  s
vector 82  University.profLaptop.udpApp[0]  rcvdPk:vector(packetBytes)  ETV
attr interpolationmode  none
attr source  rcvdPk
attr title  "packets received, vector(packetBytes)"
vector 84  University.profLaptop.udpApp[0]  rcvdPkLifetime:vector  ETV
attr interpolationmode  none
attr source  messageAge(rcvdPk)
attr title  "received packet lifetime, vector"
attr unit  s
vector 119  University.CCTV.udpApp[0]  sentPk:vector(packetBytes)  ETV
attr interpolationmode  none
attr source  sentPk
attr title  "packets sent, vector(packetBytes)"
vector 359  University.mainR.ppp[0].inputHook[0]  "thruput (bit/sec)"  ETV
vector 360  University.mainR.ppp[0].inputHook[0]  packet/sec  ETV
vector 369  University.mainR.ppp[3].outputHook[0]  "thruput (bit/sec)"  ETV
vector 370  University.mainR.ppp[3].outputHook[0]  packet/sec  ETV
vector 375  University.ccTVMonitoringHost.ppp[0].inputHook[0]  "thruput (bit/sec)"  ETV
vector 376  University.ccTVMonitoringHost.ppp[0].inputHook[0]  packet/sec  ETV
vector 377  University.profLaptop.ppp[0].outputHook[0]  "thruput (bit/sec)"  ETV
vector 378  University.profLaptop.ppp[0].outputHook[0]  packet/sec  ETV
vector 529  University.whostVideoConf.wlan[0].outputHook[0]  "thruput (bit/sec)"  ETV
vector 530  University.whostVideoConf.wlan[0].outputHook[0]  packet/sec  ETV
vector 551  University.accessPoint.wlan[0].inputHook[0]  "thruput (bit/sec)"  ETV
vector 552  University.accessPoint.wlan[0].inputHook[0]  packet/sec  ETV
vector 559  University.accessPoint.eth[0].outputHook[0]  "thruput (bit/sec)"  ETV
vector 560  University.accessPoint.eth[0].outputHook[0]  packet/sec  ETV
vector 347  University.remoteR.eth[0].inputHook[0]  "thruput (bit/sec)"  ETV
vector 348  University.remoteR.eth[0].inputHook[0]  packet/sec  ETV
vector 353  University.remoteR.ppp[0].outputHook[0]  "thruput (bit/sec)"  ETV
vector 354  University.remoteR.ppp[0].outputHook[0]  packet/sec  ETV
vector 363  University.mainR.ppp[1].inputHook[0]  "thruput (bit/sec)"  ETV
vector 364  University.mainR.ppp[1].inputHook[0]  packet/sec  ETV
vector 361  University.mainR.ppp[1].outputHook[0]  "thruput (bit/sec)"  ETV
vector 362  University.mainR.ppp[1].outputHook[0]  packet/sec  ETV
vector 379  University.profLaptop.ppp[0].inputHook[0]  "thruput (bit/sec)"  ETV
vector 380  University.profLaptop.ppp[0].inputHook[0]  packet/sec  ETV
vector 385  University.CCTV.eth[0].outputHook[0]  "thruput (bit/sec)"  ETV
vector 386  University.CCTV.eth[0].outputHook[0]  packet/sec  ETV
vector 351  University.remoteR.eth[1].inputHook[0]  "thruput (bit/sec)"  ETV
vector 352  University.remoteR.eth[1].inputHook[0]  packet/sec  ETV
vector 188  University.whttpStudents[4].tcpApp[0]  numActiveSessions:vector  ETV
attr interpolationmode  sample-hold
attr source  sum(connect)
attr title  "number of active sessions, vector"
vector 365  University.mainR.ppp[2].outputHook[0]  "thruput (bit/sec)"  ETV
vector 366  University.mainR.ppp[2].outputHook[0]  packet/sec  ETV
vector 383  University.Server.ppp[0].inputHook[0]  "thruput (bit/sec)"  ETV
vector 384  University.Server.ppp[0].inputHook[0]  packet/sec  ETV
vector 381  University.Server.ppp[0].outputHook[0]  "thruput (bit/sec)"  ETV
vector 382  University.Server.ppp[0].outputHook[0]  packet/sec  ETV
vector 367  University.mainR.ppp[2].inputHook[0]  "thruput (bit/sec)"  ETV
vector 368  University.mainR.ppp[2].inputHook[0]  packet/sec  ETV
vector 429  University.whttpStudents[4].wlan[0].outputHook[0]  "thruput (bit/sec)"  ETV
vector 430  University.whttpStudents[4].wlan[0].outputHook[0]  packet/sec  ETV
vector 236  University.whttpStudents[8].tcpApp[0]  numActiveSessions:vector  ETV
attr interpolationmode  sample-hold
attr source  sum(connect)
attr title  "number of active sessions, vector"
vector 345  University.remoteR.eth[0].outputHook[0]  "thruput (bit/sec)"  ETV
vector 346  University.remoteR.eth[0].outputHook[0]  packet/sec  ETV
vector 561  University.accessPoint.eth[0].inputHook[0]  "thruput (bit/sec)"  ETV
vector 562  University.accessPoint.eth[0].inputHook[0]  packet/sec  ETV
vector 549  University.accessPoint.wlan[0].outputHook[0]  "thruput (bit/sec)"  ETV
vector 550  University.accessPoint.wlan[0].outputHook[0]  packet/sec  ETV
vector 401  University.whttpStudents[1].wlan[0].inputHook[0]  "thruput (bit/sec)"  ETV
vector 402  University.whttpStudents[1].wlan[0].inputHook[0]  packet/sec  ETV
vector 491  University.whttpStudents[10].wlan[0].inputHook[0]  "thruput (bit/sec)"  ETV
vector 492  University.whttpStudents[10].wlan[0].inputHook[0]  packet/sec  ETV
vector 441  University.whttpStudents[5].wlan[0].inputHook[0]  "thruput (bit/sec)"  ETV
vector 442  University.whttpStudents[5].wlan[0].inputHook[0]  packet/sec  ETV
vector 451  University.whttpStudents[6].wlan[0].inputHook[0]  "thruput (bit/sec)"  ETV
vector 452  University.whttpStudents[6].wlan[0].inputHook[0]  packet/sec  ETV
vector 531  University.whostVideoConf.wlan[0].inputHook[0]  "thruput (bit/sec)"  ETV
vector 532  University.whostVideoConf.wlan[0].inputHook[0]  packet/sec  ETV
vector 541  University.whostFTP.wlan[0].inputHook[0]  "thruput (bit/sec)"  ETV
vector 542  University.whostFTP.wlan[0].inputHook[0]  packet/sec  ETV
vector 411  University.whttpStudents[2].wlan[0].inputHook[0]  "thruput (bit/sec)"  ETV
vector 412  University.whttpStudents[2].wlan[0].inputHook[0]  packet/sec  ETV
vector 431  University.whttpStudents[4].wlan[0].inputHook[0]  "thruput (bit/sec)"  ETV
vector 432  University.whttpStudents[4].wlan[0].inputHook[0]  packet/sec  ETV
vector 501  University.whttpStudents[11].wlan[0].inputHook[0]  "thruput (bit/sec)"  ETV
vector 502  University.whttpStudents[11].wlan[0].inputHook[0]  packet/sec  ETV
vector 511  University.whttpStudents[12].wlan[0].inputHook[0]  "thruput (bit/sec)"  ETV
vector 512  University.whttpStudents[12].wlan[0].inputHook[0]  packet/sec  ETV
vector 461  University.whttpStudents[7].wlan[0].inputHook[0]  "thruput (bit/sec)"  ETV
vector 462  University.whttpStudents[7].wlan[0].inputHook[0]  packet/sec  ETV
vector 521  University.whttpStudents[13].wlan[0].inputHook[0]  "thruput (bit/sec)"  ETV
vector 522  University.whttpStudents[13].wlan[0].inputHook[0]  packet/sec  ETV
vector 421  University.whttpStudents[3].wlan[0].inputHook[0]  "thruput (bit/sec)"  ETV
vector 422  University.whttpStudents[3].wlan[0].inputHook[0]  packet/sec  ETV
vector 481  University.whttpStudents[9].wlan[0].inputHook[0]  "thruput (bit/sec)"  ETV
vector 482  University.whttpStudents[9].wlan[0].inputHook[0]  packet/sec  ETV
vector 391  University.whttpStudents[0].wlan[0].inputHook[0]  "thruput (bit/sec)"  ETV
vector 392  University.whttpStudents[0].wlan[0].inputHook[0]  packet/sec  ETV
vector 471  University.whttpStudents[8].wlan[0].inputHook[0]  "thruput (bit/sec)"  ETV
vector 472  University.whttpStudents[8].wlan[0].inputHook[0]  packet/sec  ETV
vector 152  University.whttpStudents[1].tcpApp[0]  numActiveSessions:vector  ETV
attr interpolationmode  sample-hold
attr source  sum(connect)
attr title  "number of active sessions, vector"
vector 224  University.whttpStudents[7].tcpApp[0]  numActiveSessions:vector  ETV
attr interpolationmode  sample-hold
attr source  sum(connect)
attr title  "number of active sessions, vector"
vector 248  University.whttpStudents[9].tcpApp[0]  numActiveSessions:vector  ETV
attr interpolationmode  sample-hold
attr source  sum(connect)
attr title  "number of active sessions, vector"
vector 469  University.whttpStudents[8].wlan[0].outputHook[0]  "thruput (bit/sec)"  ETV
vector 470  University.whttpStudents[8].wlan[0].outputHook[0]  packet/sec  ETV
vector 399  University.whttpStudents[1].wlan[0].outputHook[0]  "thruput (bit/sec)"  ETV
vector 400  University.whttpStudents[1].wlan[0].outputHook[0]  packet/sec  ETV
vector 459  University.whttpStudents[7].wlan[0].outputHook[0]  "thruput (bit/sec)"  ETV
vector 460  University.whttpStudents[7].wlan[0].outputHook[0]  packet/sec  ETV
vector 479  University.whttpStudents[9].wlan[0].outputHook[0]  "thruput (bit/sec)"  ETV
vector 480  University.whttpStudents[9].wlan[0].outputHook[0]  packet/sec  ETV
vector 176  University.whttpStudents[3].tcpApp[0]  numActiveSessions:vector  ETV
attr interpolationmode  sample-hold
attr source  sum(connect)
attr title  "number of active sessions, vector"
vector 140  University.whttpStudents[0].tcpApp[0]  numActiveSessions:vector  ETV
attr interpolationmode  sample-hold
attr source  sum(connect)
attr title  "number of active sessions, vector"
vector 138  University.whttpStudents[0].tcpApp[0]  sentPk:vector(packetBytes)  ETV
attr interpolationmode  none
attr source  sentPk
attr title  "packets sent, vector(packetBytes)"
vector 101  University.Server.tcpApp[0]  rcvdPk:vector(packetBytes)  ETV
attr interpolationmode  none
attr source  rcvdPk
attr title  "packets received, vector(packetBytes)"
vector 103  University.Server.tcpApp[0]  endToEndDelay:vector  ETV
attr interpolationmode  none
attr source  messageAge(rcvdPk)
attr title  "end-to-end delay, vector"
attr unit  s
vector 102  University.Server.tcpApp[0]  sentPk:vector(packetBytes)  ETV
attr interpolationmode  none
attr source  sentPk
attr title  "packets sent, vector(packetBytes)"
vector 389  University.whttpStudents[0].wlan[0].outputHook[0]  "thruput (bit/sec)"  ETV
vector 390  University.whttpStudents[0].wlan[0].outputHook[0]  packet/sec  ETV
vector 357  University.mainR.ppp[0].outputHook[0]  "thruput (bit/sec)"  ETV
vector 358  University.mainR.ppp[0].outputHook[0]  packet/sec  ETV
vector 355  University.remoteR.ppp[0].inputHook[0]  "thruput (bit/sec)"  ETV
vector 356  University.remoteR.ppp[0].inputHook[0]  packet/sec  ETV
vector 137  University.whttpStudents[0].tcpApp[0]  rcvdPk:vector(packetBytes)  ETV
attr interpolationmode  none
attr source  rcvdPk
attr title  "packets received, vector(packetBytes)"
vector 139  University.whttpStudents[0].tcpApp[0]  endToEndDelay:vector  ETV
attr interpolationmode  none
attr source  messageAge(rcvdPk)
attr title  "end-to-end delay, vector"
attr unit  s
vector 419  University.whttpStudents[3].wlan[0].outputHook[0]  "thruput (bit/sec)"  ETV
vector 420  University.whttpStudents[3].wlan[0].outputHook[0]  packet/sec  ETV
vector 539  University.whostFTP.wlan[0].outputHook[0]  "thruput (bit/sec)"  ETV
vector 540  University.whostFTP.wlan[0].outputHook[0]  packet/sec  ETV
vector 439  University.whttpStudents[5].wlan[0].outputHook[0]  "thruput (bit/sec)"  ETV
vector 440  University.whttpStudents[5].wlan[0].outputHook[0]  packet/sec  ETV
vector 489  University.whttpStudents[10].wlan[0].outputHook[0]  "thruput (bit/sec)"  ETV
vector 490  University.whttpStudents[10].wlan[0].outputHook[0]  packet/sec  ETV
vector 272  University.whttpStudents[11].tcpApp[0]  numActiveSessions:vector  ETV
attr interpolationmode  sample-hold
attr source  sum(connect)
attr title  "number of active sessions, vector"
vector 499  University.whttpStudents[11].wlan[0].outputHook[0]  "thruput (bit/sec)"  ETV
vector 500  University.whttpStudents[11].wlan[0].outputHook[0]  packet/sec  ETV
vector 212  University.whttpStudents[6].tcpApp[0]  numActiveSessions:vector  ETV
attr interpolationmode  sample-hold
attr source  sum(connect)
attr title  "number of active sessions, vector"
vector 449  University.whttpStudents[6].wlan[0].outputHook[0]  "thruput (bit/sec)"  ETV
vector 450  University.whttpStudents[6].wlan[0].outputHook[0]  packet/sec  ETV
vector 296  University.whttpStudents[13].tcpApp[0]  numActiveSessions:vector  ETV
attr interpolationmode  sample-hold
attr source  sum(connect)
attr title  "number of active sessions, vector"
vector 284  University.whttpStudents[12].tcpApp[0]  numActiveSessions:vector  ETV
attr interpolationmode  sample-hold
attr source  sum(connect)
attr title  "number of active sessions, vector"
vector 519  University.whttpStudents[13].wlan[0].outputHook[0]  "thruput (bit/sec)"  ETV
vector 520  University.whttpStudents[13].wlan[0].outputHook[0]  packet/sec  ETV
vector 509  University.whttpStudents[12].wlan[0].outputHook[0]  "thruput (bit/sec)"  ETV
vector 510  University.whttpStudents[12].wlan[0].outputHook[0]  packet/sec  ETV
vector 164  University.whttpStudents[2].tcpApp[0]  numActiveSessions:vector  ETV
attr interpolationmode  sample-hold
attr source  sum(connect)
attr title  "number of active sessions, vector"
vector 409  University.whttpStudents[2].wlan[0].outputHook[0]  "thruput (bit/sec)"  ETV
vector 410  University.whttpStudents[2].wlan[0].outputHook[0]  packet/sec  ETV
vector 324  University.whostFTP.tcpApp[0]  numActiveSessions:vector  ETV
attr interpolationmode  sample-hold
attr source  sum(connect)
attr title  "number of active sessions, vector"
vector 260  University.whttpStudents[10].tcpApp[0]  numActiveSessions:vector  ETV
attr interpolationmode  sample-hold
attr source  sum(connect)
attr title  "number of active sessions, vector"
vector 200  University.whttpStudents[5].tcpApp[0]  numActiveSessions:vector  ETV
attr interpolationmode  sample-hold
attr source  sum(connect)
attr title  "number of active sessions, vector"
vector 349  University.remoteR.eth[1].outputHook[0]  "thruput (bit/sec)"  ETV
vector 350  University.remoteR.eth[1].outputHook[0]  packet/sec  ETV
vector 387  University.CCTV.eth[0].inputHook[0]  "thruput (bit/sec)"  ETV
vector 388  University.CCTV.eth[0].inputHook[0]  packet/sec  ETV
64	14410 2848192 67514 55931880 5.009010183458 3215.609010183458 80266 10240 10240 821923840 8416500121600
65	2862602 3570584 67514 55931880 5.009010183458 3215.609010183458 80266 0.017080129996 0.018036796662 1371.0326046495 23.418766355785
82	6433186 2767695 67539 55931905 5.023272238183 3215.623272238183 80266 1400 1400 112372400 157321360000
83	9200881 2767932 67321 55931687 5.006907812999 3215.606907812999 80266 1400 1400 112372400 157321360000
84	11968813 3570169 67539 55931480 5.023272238183 3215.583272238183 80265 0.016345621362 0.115339619871 1315.2059364446 21.586411965404
101	15538982 4920 208541 55256957 19.125914654878 3195.005660233607 152 1 1 152 152
102	15543902 5696 208541 55256957 19.125914654878 3195.005660233607 152 10396 5301968 104904753 1.6463182648301e+14
103	15549598 6765 208541 55256957 19.125914654878 3195.005660233607 152 0.11317433796 0.119308896347 17.287711449102 1.9665096064609
119	15556363 2928429 67540 55931481 5.031930053462 3215.591930053462 80265 10240 10240 821913600 8416395264000
137	18484792 5663 288919 55247017 20.646317150629 3194.171035584994 151 10396 5301968 102609716 1.5936463165164e+14
138	18490455 4917 207225 55255376 19.012731316918 3194.892485895647 152 1 1 152 152
139	18495372 6872 288919 55247017 20.646317150629 3194.171035584994 151 0.773548063255 41.876945890794 1079.3828873121 27032.601377292
140	18502244 9804 204649 55252879 18.819310105244 3194.700622762897 303 0 1 152 152
152	18512048 1221 151933 55103250 13.652997500445 3181.537493871485 37 1 37 703 17575
164	18513269 1194 1304381 54997842 56.118044279435 3172.317752383515 36 1 36 666 16206
176	18514463 1192 195990 54367324 17.980811276947 3150.950938693578 36 1 36 666 16206
188	18515655 1220 101217 54950035 8.558409624662 3168.168942557959 37 1 37 703 17575
200	18516875 1093 1575963 54202780 79.977868075759 3134.05332299903 33 1 33 561 12529
212	18517968 1192 380645 55152532 29.815874647804 3185.847846808636 36 1 36 666 16206
224	18519160 1261 154826 55921125 13.900114463296 3214.705470320548 38 1 38 741 19019
236	18520421 1224 151140 54372795 13.644715539979 3151.492133866555 37 1 37 703 17575
248	18521645 1125 158545 54017832 14.221572511872 3117.97118071301 34 1 34 595 13685
260	18522770 1192 1526840 54940509 75.681002632569 3167.364003242611 36 1 36 666 16206
272	18523962 1122 333315 53890948 24.995053700125 3104.880793601855 34 1 34 595 13685
284	18525084 1223 740993 55824326 44.632271752134 3206.183797995192 37 1 37 703 17575
296	18526307 1156 729678 54354612 43.507380024064 3149.714667707317 35 1 35 630 14910
306	18527463 2848198 67328 55931694 5.006926616821 3215.606926616821 80266 1400 1400 112372400 157321360000
324	21375661 853 1519145 54358014 75 3150 42 1 42 903 25585
345	21376514 56934 151226 55921741 8.558481466205 3213.591799643951 1230 6.97738389905 9665796.7702977 694096587.75497 3.2817746617149e+15
346	21433448 57080 151226 55921741 8.558481466205 3213.591799643951 1230 0.031149035263616 805.48306419148 58408.365504673 22842361.610151
347	21490528 121761 76981 55922201 5.007315571517 3213.767315571517 3207 277789.07296864 569684.73640906 940157436.36883 2.7793041829827e+14
348	21612289 109743 76981 55922201 5.007315571517 3213.767315571517 3207 25 878.53849108671 155464.81850065 29801509.09596
349	21722032 1164 4773945 54048291 120.031935863462 3000.991935863462 25 1.8660446517827 1.8660446517827 46.651116294568 87.053066061174
350	21723196 1239 4773945 54048291 120.031935863462 3000.991935863462 25 0.0083305564811729 0.0083305564811729 0.20826391202932 0.0017349542821503
351	21724435 123476 77112 55925039 5.032052183462 3214.03229826346 3210 2077600 2089367.2027084 6669125310.1173 1.3855835917218e+16
352	21847911 110652 77112 55925039 5.032052183462 3214.03229826346 3210 175 176 561777.95669434 98316062.757184
353	21958563 123492 76983 55925041 5.007315571517 3214.03229826346 3210 2363200 2617344 7610167535.2232 1.8044350760174e+16
354	22082055 110675 76983 55925041 5.007315571517 3214.03229826346 3210 200 994 717450.00712369 183845329.79373
355	22192730 48789 229302 55921739 19.012655307456 3213.591799643951 1053 10.200693550843 10069305.066385 656652811.18226 3.2423106332359e+15
356	22241519 48755 229302 55921739 19.012655307456 3213.591799643951 1053 0.031877167346386 839.91133747677 55079.037717697 22558962.748712
357	22290274 48752 229162 55921643 19.00261864079 3213.580794977285 1052 18.897351200906 10666531.240828 708524718.80237 4.3524901042569e+15
358	22339026 48704 229162 55921643 19.00261864079 3213.580794977285 1052 0.05905422250283 888.87760340232 59407.520197147 30278596.48589
359	22387730 123492 76755 55925110 5.003056850128 3214.04506618346 3210 2363200 2617344 7610209851.5985 1.80445532649e+16
360	22511222 110735 76755 55925110 5.003056850128 3214.04506618346 3210 200 994 717451.85513915 183774065.11005
361	22621957 120327 77064 55924974 5.011907812999 3214.011907812999 3210 296800 296800 952728000 2.827696704e+14
362	22742284 107487 77064 55924974 5.011907812999 3214.011907812999 3210 50 50 160500 8025000
363	22849771 120327 77061 55924971 5.011907812999 3214.011907812999 3210 285600 285600 916776000 2.618312256e+14
364	22970098 107487 77061 55924971 5.011907812999 3214.011907812999 3210 25 25 80250 2006250
365	23077585 94668 113248 55919892 8.570107195957 3213.409041516791 2052 33.72892124706 256022.74647649 23397475.950695 2301385549091.4
366	23172253 94718 113248 55919892 8.570107195957 3213.409041516791 2052 0.10540287889706 799.87646559411 71368.632407871 22349354.723375
367	23266971 90362 114844 55928992 8.741745136451 3214.359622748867 1957 86.139429024202 10655536.5847 800294173.52846 4.0863118127456e+15
368	23357333 90561 114844 55928992 8.741745136451 3214.359622748867 1957 0.24471428700057 891.84336693806 70281.390200177 28668361.947997
369	23447894 123466 76757 55925112 5.003056850128 3214.04506618346 3210 2019993.2560567 2087723.8321821 6669117707.4711 1.3855808162713e+16
370	23571360 110698 76757 55925112 5.003056850128 3214.04506618346 3210 170.21024188491 175.8419766769 561751.80485177 98306910.141497
375	23682058 123466 76762 55925117 5.003056850128 3214.04506618346 3210 2019993.2560567 2087723.8321821 6669117707.4711 1.3855808162713e+16
376	23805524 110698 76762 55925117 5.003056850128 3214.04506618346 3210 170.21024188491 175.8419766769 561751.80485177 98306910.141497
377	23916222 120327 76869 55924779 5.006907812999 3214.006907812999 3210 285600 285600 916776000 2.618312256e+14
378	24036549 107487 76869 55924779 5.006907812999 3214.006907812999 3210 25 25 80250 2006250
379	24144036 120327 77069 55924979 5.016907812999 3214.016907812999 3210 296800 296800 952728000 2.827696704e+14
380	24264363 107487 77069 55924979 5.016907812999 3214.016907812999 3210 50 50 160500 8025000
381	24371850 90108 114060 55928095 8.672476165532 3214.290237617948 1957 86.139429024202 11507206.655728 827849833.95874 4.4214576126785e+15
382	24461958 90288 114060 55928095 8.672476165532 3214.290237617948 1957 0.24471428700057 962.73013011308 72576.761587563 31010477.821944
383	24552246 94396 114056 55920783 8.672476165532 3213.511409846366 2052 33.72891897178 256022.42758782 23397476.417675 2301385633606.6
384	24646642 94440 114056 55920783 8.672476165532 3213.511409846366 2052 0.10540287178681 799.87546930944 71368.633773313 22349355.512339
385	24741082 123537 77088 55924998 5.031930053462 3214.031930053462 3210 2077600 2077824 6669101824 1.3855738050789e+16
386	24864619 110697 77088 55924998 5.031930053462 3214.031930053462 3210 175 176 561776 98315376
387	24975316 1164 4773952 54048298 120.031941673462 3000.991941673462 25 1.8660446517827 1.8660446517827 46.651116294568 87.053066061174
388	24976480 1239 4773952 54048298 120.031941673462 3000.991941673462 25 0.0083305564811729 0.0083305564811729 0.20826391202932 0.0017349542821503
389	24977719 50433 222119 55919447 18.819310105244 3213.398356337699 1090 4.9983139021239 273530.1427498 19419097.535252 2178363129025.3
390	25028152 50427 222119 55919447 18.819310105244 3213.398356337699 1090 0.015619730944137 854.78169609312 60661.431679346 21272320.840482
391	25078579 56849 151425 55921821 8.559569695667 3213.592207813412 1230 6.9776039006436 8948969.6111186 692988723.98207 3.177787790542e+15
392	25135428 56963 151425 55921821 8.559569695667 3213.592207813412 1230 0.031150017413587 745.74746759322 58315.657568346 22119067.512213
399	25192391 6725 182549 55783487 13.652997500445 3190.537493871485 183 5.1985290712942 202.66666666667 9910.3770153517 1010885.2235303
400	25199116 8754 182549 55783487 13.652997500445 3190.537493871485 183 0.013537836123162 0.66666666666667 27.114177977537 8.2164324782494
401	25207870 12569 151339 55116387 8.559569671268 3175.24808665658 273 1.8660963655977 640.00336804332 18545.194429904 2644815.7055886
402	25220439 12930 151339 55116387 8.559569671268 3175.24808665658 273 0.0083307873464181 2.8571578930506 82.791046562073 52.71077219365
409	25233369 6584 1339137 55237190 56.118044279435 3181.317752383515 178 5.1458198195599 202.66666666667 9689.4751026346 1011582.5156937
410	25239953 8548 1339137 55237190 56.118044279435 3181.317752383515 178 0.013400572446771 0.66666666666667 26.610032440955 8.3740256339451
411	25248501 12591 151377 55116429 8.559569686714 3175.248086672026 273 1.8660963655977 640.00336804332 18545.20146845 2644826.2812856
412	25261092 12947 151377 55116429 8.559569686714 3175.248086672026 273 0.0083307873464181 2.8571578930506 82.791077984153 52.710982965673
419	25274039 6624 293447 55276307 17.980811276947 3171.950938693578 179 4.7211088299802 202.66666666667 9699.1318198659 1010958.6108925
420	25280663 8583 293447 55276307 17.980811276947 3171.950938693578 179 0.01229455424474 0.66666666666667 26.628114212296 8.3641295496406
421	25289246 12600 151413 55116465 8.559569693926 3175.248086679238 273 1.8660963655977 639.97594035868 18545.19117795 2644796.4610612
422	25301846 12957 151413 55116465 8.559569693926 3175.248086679238 273 0.0083307873464181 2.8570354480298 82.791032044421 52.710388653165
429	25314803 6761 131053 55903701 8.558409624662 3189.168942557959 184 3.4127482748843 202.66666666667 9947.7605232211 1016694.1245014
430	25321564 8806 131053 55903701 8.558409624662 3189.168942557959 184 0.0088873652991778 0.66666666666667 27.242077896521 8.2925589287356
431	25330370 12578 151383 55116435 8.559680687748 3175.24808667306 273 1.8660963655977 640.00336804332 18545.283041408 2644860.359131
432	25342948 12925 151383 55116435 8.559680687748 3175.24808667306 273 0.0083307873464181 2.8571578930506 82.791442149141 52.711662131916
439	25355873 6176 294643 55075106 9.07758756364 3155.05332299903 167 3.5815548235705 202.66666666667 8914.8371098993 909135.22995739
440	25362049 8000 294643 55075106 9.07758756364 3155.05332299903 167 0.0093269656863814 0.66666666666667 24.431625375882 7.4213661854639
441	25370049 12597 151351 55116399 8.559569676846 3175.248086662158 273 1.8660963655977 640.00336804332 18545.213516288 2644831.0369153
442	25382646 12956 151351 55116399 8.559569676846 3175.248086662158 273 0.0083307873464181 2.8571578930506 82.791131769141 52.711077744645
449	25395602 6575 619211 55832270 29.815874647804 3194.847846808636 178 4.2396239327581 202.66666666667 9655.2404899194 989967.84341377
450	25402177 8532 619211 55832270 29.815874647804 3194.847846808636 178 0.011040687324891 0.66666666666667 26.457316671361 8.0821294120194
451	25410709 12579 151357 55116405 8.559569676942 3175.248086662254 273 1.8660963655977 640.00336804332 18545.216766327 2644833.1313796
452	25423288 12939 151357 55116405 8.559569676942 3175.248086662254 273 0.0083307873464181 2.8571578930506 82.791146278245 52.711119486998
459	25436227 6859 185053 55921128 13.900114463296 3168.035685026122 185 4.8898471484719 202.66666666667 10099.300220379 1065048.4318879
460	25443086 8886 185053 55921128 13.900114463296 3168.035685026122 185 0.012733976949146 0.66666666666667 27.889617636078 8.9439704174514
461	25451972 12601 151401 55116453 8.559569689751 3175.248086675063 273 1.8660963655977 640.00336804332 18545.274901007 2644856.0078347
462	25464573 12964 151401 55116453 8.559569689751 3175.248086675063 273 0.0083307873464181 2.8571578930506 82.791405808067 52.711575411247
469	25477537 6762 182173 55327939 13.644715539979 3172.492133866555 184 3.0449501936077 202.66666666667 9776.8171498705 948521.03538687
470	25484299 8824 182173 55327939 13.644715539979 3172.492133866555 184 0.0079295577958533 0.66666666666667 26.467292988284 7.3713357697561
471	25493123 12592 151465 55116411 8.559569679764 3175.248086665076 273 1.8660963655977 640.00336804332 18545.224812878 2644834.2212275
472	25505715 12951 151465 55116411 8.559569679764 3175.248086665076 273 0.0083307873464181 2.8571578930506 82.791182200347 52.7111412075
479	25518666 6263 188381 54490097 14.221572511872 3138.97118071301 169 4.4194762563753 202.66666666667 9260.1215800028 992356.60002131
480	25524929 8106 188381 54490097 14.221572511872 3138.97118071301 169 0.011509052750977 0.66666666666667 25.629816129366 8.4084943066624
481	25533035 12594 151419 55116471 8.559569695013 3175.248086680325 273 1.8660963655977 640.00336804332 18545.200904725 2644814.7734389
482	25545629 12954 151419 55116471 8.559569695013 3175.248086680325 273 0.0083307873464181 2.8571578930506 82.79107546752 52.710753616049
489	25558583 6711 300612 55894341 9.677472000454 3188.364003242611 182 5.6109316843388 202.66666666667 9787.6507094836 1014681.0741349
490	25565294 8717 300612 55894341 9.677472000454 3188.364003242611 182 0.014611801261299 0.66666666666667 26.89076914818 8.4033265634924
491	25574011 12595 151345 55116393 8.559569673524 3175.248086658836 273 1.8660963655977 640.00336804332 18545.228522321 2644841.5861094
492	25586606 12946 151345 55116393 8.559569673524 3175.248086658836 273 0.0083307873464181 2.8571578930506 82.791198760361 52.711287988469
499	25599552 6248 362751 54356697 24.995053700125 3125.880793601855 169 4.0637539459463 202.66666666667 9148.7712279472 945176.76058202
500	25605800 8090 362751 54356697 24.995053700125 3125.880793601855 169 0.013367611664297 0.66666666666667 25.119456153748 7.7708554075489
501	25613890 12594 151389 55116441 8.559569688146 3175.248086673458 273 1.8660963655977 640.00336804332 18545.216842502 2644831.0432116
502	25626484 12953 151389 55116441 8.559569688146 3175.248086673458 273 0.0083307873464181 2.8571578930506 82.791146618311 52.711077870128
509	25639437 6729 771228 55926809 44.632271752134 3209.183797995192 182 4.2685003542725 202.66666666667 9980.2168636423 1043665.2237235
510	25646166 8717 771228 55926809 44.632271752134 3209.183797995192 182 0.011115886339251 0.66666666666667 27.488812745412 8.6663292264972
511	25654883 12598 151395 55116447 8.559569688573 3175.248086673885 273 1.8660963655977 640.00336804332 18545.229688506 2644834.5498588
512	25667481 12955 151395 55116447 8.559569688573 3175.248086673885 273 0.0083307873464181 2.8571578930506 82.791203966546 52.711147757071
519	25680436 6404 760311 55253205 43.507380024064 3170.714667707317 174 3.0726218064626 202.66666666667 9478.3718338648 994669.37778708
520	25686840 8332 760311 55253205 43.507380024064 3170.714667707317 174 0.0080016192876629 0.66666666666667 26.099261542975 8.2901897736494
521	25695172 12603 151407 55116459 8.559569692363 3175.248086677675 273 1.8660963655977 640.03738163746 18545.256569141 2644876.6143033
522	25707775 12955 151407 55116459 8.559569692363 3175.248086677675 273 0.0083307873464181 2.857309739453 82.79132396938 52.711986095012