file 44702117 1471641732                                        
version 2
run _14to17on-5-20160819-23:15:46-13098
attr configname _14to17on
attr datetime 20160819-23:15:46
attr experiment _14to17on
attr inifile omnetpp.ini
attr iterationvars $0=14
attr iterationvars2 "$0=14, $repetition=5"
attr measurement $0=14
attr network University
attr processid 13098
attr repetition 5
attr replication #5
attr resultdir results
attr runnumber 5
attr seedset 5

vector 119  University.CCTV.udpApp[0]  sentPk:vector(packetBytes)  ETV
attr interpolationmode  none
attr source  sentPk
attr title  "packets sent, vector(packetBytes)"
vector 306  University.whostVideoConf.udpApp[0]  sentPk:vector(packetBytes)  ETV
attr interpolationmode  none
attr source  sentPk
attr title  "packets sent, vector(packetBytes)"
vector 64  University.ccTVMonitoringHost.udpApp[0]  rcvdPk:vector(packetBytes)  ETV
attr interpolationmode  none
attr source  rcvdPk
attr title  "packets received, vector(packetBytes)"
vector 65  University.ccTVMonitoringHost.udpApp[0]  endToEndDelay:vector  ETV
attr interpolationmode  none
attr source  messageAge(rcvdPk)
attr title  "end-to-end delay, vector"
attr unit  s
vector 82  University.profLaptop.udpApp[0]  rcvdPk:vector(packetBytes)  ETV
attr interpolationmode  none
attr source  rcvdPk
attr title  "packets received, vector(packetBytes)"
vector 84  University.profLaptop.udpApp[0]  rcvdPkLifetime:vector  ETV
attr interpolationmode  none
attr source  messageAge(rcvdPk)
attr title  "received packet lifetime, vector"
attr unit  s
vector 83  University.profLaptop.udpApp[0]  sentPk:vector(packetBytes)  ETV
attr interpolationmode  none
attr source  sentPk
attr title  "packets sent, vector(packetBytes)"
vector 379  University.profLaptop.ppp[0].inputHook[0]  "thruput (bit/sec)"  ETV
vector 380  University.profLaptop.ppp[0].inputHook[0]  packet/sec  ETV
vector 385  University.CCTV.eth[0].outputHook[0]  "thruput (bit/sec)"  ETV
vector 386  University.CCTV.eth[0].outputHook[0]  packet/sec  ETV
vector 351  University.remoteR.eth[1].inputHook[0]  "thruput (bit/sec)"  ETV
vector 352  University.remoteR.eth[1].inputHook[0]  packet/sec  ETV
vector 353  University.remoteR.ppp[0].outputHook[0]  "thruput (bit/sec)"  ETV
vector 354  University.remoteR.ppp[0].outputHook[0]  packet/sec  ETV
vector 529  University.whostVideoConf.wlan[0].outputHook[0]  "thruput (bit/sec)"  ETV
vector 530  University.whostVideoConf.wlan[0].outputHook[0]  packet/sec  ETV
vector 551  University.accessPoint.wlan[0].inputHook[0]  "thruput (bit/sec)"  ETV
vector 552  University.accessPoint.wlan[0].inputHook[0]  packet/sec  ETV
vector 559  University.accessPoint.eth[0].outputHook[0]  "thruput (bit/sec)"  ETV
vector 560  University.accessPoint.eth[0].outputHook[0]  packet/sec  ETV
vector 347  University.remoteR.eth[0].inputHook[0]  "thruput (bit/sec)"  ETV
vector 348  University.remoteR.eth[0].inputHook[0]  packet/sec  ETV
vector 359  University.mainR.ppp[0].inputHook[0]  "thruput (bit/sec)"  ETV
vector 360  University.mainR.ppp[0].inputHook[0]  packet/sec  ETV
vector 369  University.mainR.ppp[3].outputHook[0]  "thruput (bit/sec)"  ETV
vector 370  University.mainR.ppp[3].outputHook[0]  packet/sec  ETV
vector 375  University.ccTVMonitoringHost.ppp[0].inputHook[0]  "thruput (bit/sec)"  ETV
vector 376  University.ccTVMonitoringHost.ppp[0].inputHook[0]  packet/sec  ETV
vector 377  University.profLaptop.ppp[0].outputHook[0]  "thruput (bit/sec)"  ETV
vector 378  University.profLaptop.ppp[0].outputHook[0]  packet/sec  ETV
vector 363  University.mainR.ppp[1].inputHook[0]  "thruput (bit/sec)"  ETV
vector 364  University.mainR.ppp[1].inputHook[0]  packet/sec  ETV
vector 361  University.mainR.ppp[1].outputHook[0]  "thruput (bit/sec)"  ETV
vector 362  University.mainR.ppp[1].outputHook[0]  packet/sec  ETV
vector 365  University.mainR.ppp[2].outputHook[0]  "thruput (bit/sec)"  ETV
vector 366  University.mainR.ppp[2].outputHook[0]  packet/sec  ETV
vector 383  University.Server.ppp[0].inputHook[0]  "thruput (bit/sec)"  ETV
vector 384  University.Server.ppp[0].inputHook[0]  packet/sec  ETV
vector 381  University.Server.ppp[0].outputHook[0]  "thruput (bit/sec)"  ETV
vector 382  University.Server.ppp[0].outputHook[0]  packet/sec  ETV
vector 367  University.mainR.ppp[2].inputHook[0]  "thruput (bit/sec)"  ETV
vector 368  University.mainR.ppp[2].inputHook[0]  packet/sec  ETV
vector 212  University.whttpStudents[6].tcpApp[0]  numActiveSessions:vector  ETV
attr interpolationmode  sample-hold
attr source  sum(connect)
attr title  "number of active sessions, vector"
vector 176  University.whttpStudents[3].tcpApp[0]  numActiveSessions:vector  ETV
attr interpolationmode  sample-hold
attr source  sum(connect)
attr title  "number of active sessions, vector"
vector 345  University.remoteR.eth[0].outputHook[0]  "thruput (bit/sec)"  ETV
vector 346  University.remoteR.eth[0].outputHook[0]  packet/sec  ETV
vector 561  University.accessPoint.eth[0].inputHook[0]  "thruput (bit/sec)"  ETV
vector 562  University.accessPoint.eth[0].inputHook[0]  packet/sec  ETV
vector 549  University.accessPoint.wlan[0].outputHook[0]  "thruput (bit/sec)"  ETV
vector 550  University.accessPoint.wlan[0].outputHook[0]  packet/sec  ETV
vector 501  University.whttpStudents[11].wlan[0].inputHook[0]  "thruput (bit/sec)"  ETV
vector 502  University.whttpStudents[11].wlan[0].inputHook[0]  packet/sec  ETV
vector 411  University.whttpStudents[2].wlan[0].inputHook[0]  "thruput (bit/sec)"  ETV
vector 412  University.whttpStudents[2].wlan[0].inputHook[0]  packet/sec  ETV
vector 511  University.whttpStudents[12].wlan[0].inputHook[0]  "thruput (bit/sec)"  ETV
vector 512  University.whttpStudents[12].wlan[0].inputHook[0]  packet/sec  ETV
vector 481  University.whttpStudents[9].wlan[0].inputHook[0]  "thruput (bit/sec)"  ETV
vector 482  University.whttpStudents[9].wlan[0].inputHook[0]  packet/sec  ETV
vector 391  University.whttpStudents[0].wlan[0].inputHook[0]  "thruput (bit/sec)"  ETV
vector 392  University.whttpStudents[0].wlan[0].inputHook[0]  packet/sec  ETV
vector 451  University.whttpStudents[6].wlan[0].inputHook[0]  "thruput (bit/sec)"  ETV
vector 452  University.whttpStudents[6].wlan[0].inputHook[0]  packet/sec  ETV
vector 531  University.whostVideoConf.wlan[0].inputHook[0]  "thruput (bit/sec)"  ETV
vector 532  University.whostVideoConf.wlan[0].inputHook[0]  packet/sec  ETV
vector 461  University.whttpStudents[7].wlan[0].inputHook[0]  "thruput (bit/sec)"  ETV
vector 462  University.whttpStudents[7].wlan[0].inputHook[0]  packet/sec  ETV
vector 491  University.whttpStudents[10].wlan[0].inputHook[0]  "thruput (bit/sec)"  ETV
vector 492  University.whttpStudents[10].wlan[0].inputHook[0]  packet/sec  ETV
vector 401  University.whttpStudents[1].wlan[0].inputHook[0]  "thruput (bit/sec)"  ETV
vector 402  University.whttpStudents[1].wlan[0].inputHook[0]  packet/sec  ETV
vector 541  University.whostFTP.wlan[0].inputHook[0]  "thruput (bit/sec)"  ETV
vector 542  University.whostFTP.wlan[0].inputHook[0]  packet/sec  ETV
vector 441  University.whttpStudents[5].wlan[0].inputHook[0]  "thruput (bit/sec)"  ETV
vector 442  University.whttpStudents[5].wlan[0].inputHook[0]  packet/sec  ETV
vector 521  University.whttpStudents[13].wlan[0].inputHook[0]  "thruput (bit/sec)"  ETV
vector 522  University.whttpStudents[13].wlan[0].inputHook[0]  packet/sec  ETV
vector 431  University.whttpStudents[4].wlan[0].inputHook[0]  "thruput (bit/sec)"  ETV
vector 432  University.whttpStudents[4].wlan[0].inputHook[0]  packet/sec  ETV
vector 471  University.whttpStudents[8].wlan[0].inputHook[0]  "thruput (bit/sec)"  ETV
vector 472  University.whttpStudents[8].wlan[0].inputHook[0]  packet/sec  ETV
vector 421  University.whttpStudents[3].wlan[0].inputHook[0]  "thruput (bit/sec)"  ETV
vector 422  University.whttpStudents[3].wlan[0].inputHook[0]  packet/sec  ETV
vector 272  University.whttpStudents[11].tcpApp[0]  numActiveSessions:vector  ETV
attr interpolationmode  sample-hold
attr source  sum(connect)
attr title  "number of active sessions, vector"
vector 449  University.whttpStudents[6].wlan[0].outputHook[0]  "thruput (bit/sec)"  ETV
vector 450  University.whttpStudents[6].wlan[0].outputHook[0]  packet/sec  ETV
vector 429  University.whttpStudents[4].wlan[0].outputHook[0]  "thruput (bit/sec)"  ETV
vector 430  University.whttpStudents[4].wlan[0].outputHook[0]  packet/sec  ETV
vector 419  University.whttpStudents[3].wlan[0].outputHook[0]  "thruput (bit/sec)"  ETV
vector 420  University.whttpStudents[3].wlan[0].outputHook[0]  packet/sec  ETV
vector 499  University.whttpStudents[11].wlan[0].outputHook[0]  "thruput (bit/sec)"  ETV
vector 500  University.whttpStudents[11].wlan[0].outputHook[0]  packet/sec  ETV
vector 509  University.whttpStudents[12].wlan[0].outputHook[0]  "thruput (bit/sec)"  ETV
vector 510  University.whttpStudents[12].wlan[0].outputHook[0]  packet/sec  ETV
vector 469  University.whttpStudents[8].wlan[0].outputHook[0]  "thruput (bit/sec)"  ETV
vector 470  University.whttpStudents[8].wlan[0].outputHook[0]  packet/sec  ETV
vector 260  University.whttpStudents[10].tcpApp[0]  numActiveSessions:vector  ETV
attr interpolationmode  sample-hold
attr source  sum(connect)
attr title  "number of active sessions, vector"
vector 200  University.whttpStudents[5].tcpApp[0]  numActiveSessions:vector  ETV
attr interpolationmode  sample-hold
attr source  sum(connect)
attr title  "number of active sessions, vector"
vector 489  University.whttpStudents[10].wlan[0].outputHook[0]  "thruput (bit/sec)"  ETV
vector 490  University.whttpStudents[10].wlan[0].outputHook[0]  packet/sec  ETV
vector 439  University.whttpStudents[5].wlan[0].outputHook[0]  "thruput (bit/sec)"  ETV
vector 440  University.whttpStudents[5].wlan[0].outputHook[0]  packet/sec  ETV
vector 539  University.whostFTP.wlan[0].outputHook[0]  "thruput (bit/sec)"  ETV
vector 540  University.whostFTP.wlan[0].outputHook[0]  packet/sec  ETV
vector 224  University.whttpStudents[7].tcpApp[0]  numActiveSessions:vector  ETV
attr interpolationmode  sample-hold
attr source  sum(connect)
attr title  "number of active sessions, vector"
vector 164  University.whttpStudents[2].tcpApp[0]  numActiveSessions:vector  ETV
attr interpolationmode  sample-hold
attr source  sum(connect)
attr title  "number of active sessions, vector"
vector 399  University.whttpStudents[1].wlan[0].outputHook[0]  "thruput (bit/sec)"  ETV
vector 400  University.whttpStudents[1].wlan[0].outputHook[0]  packet/sec  ETV
vector 519  University.whttpStudents[13].wlan[0].outputHook[0]  "thruput (bit/sec)"  ETV
vector 520  University.whttpStudents[13].wlan[0].outputHook[0]  packet/sec  ETV
vector 479  University.whttpStudents[9].wlan[0].outputHook[0]  "thruput (bit/sec)"  ETV
vector 480  University.whttpStudents[9].wlan[0].outputHook[0]  packet/sec  ETV
vector 459  University.whttpStudents[7].wlan[0].outputHook[0]  "thruput (bit/sec)"  ETV
vector 460  University.whttpStudents[7].wlan[0].outputHook[0]  packet/sec  ETV
vector 409  University.whttpStudents[2].wlan[0].outputHook[0]  "thruput (bit/sec)"  ETV
vector 410  University.whttpStudents[2].wlan[0].outputHook[0]  packet/sec  ETV
vector 140  University.whttpStudents[0].tcpApp[0]  numActiveSessions:vector  ETV
attr interpolationmode  sample-hold
attr source  sum(connect)
attr title  "number of active sessions, vector"
vector 138  University.whttpStudents[0].tcpApp[0]  sentPk:vector(packetBytes)  ETV
attr interpolationmode  none
attr source  sentPk
attr title  "packets sent, vector(packetBytes)"
vector 101  University.Server.tcpApp[0]  rcvdPk:vector(packetBytes)  ETV
attr interpolationmode  none
attr source  rcvdPk
attr title  "packets received, vector(packetBytes)"
vector 103  University.Server.tcpApp[0]  endToEndDelay:vector  ETV
attr interpolationmode  none
attr source  messageAge(rcvdPk)
attr title  "end-to-end delay, vector"
attr unit  s
vector 102  University.Server.tcpApp[0]  sentPk:vector(packetBytes)  ETV
attr interpolationmode  none
attr source  sentPk
attr title  "packets sent, vector(packetBytes)"
vector 389  University.whttpStudents[0].wlan[0].outputHook[0]  "thruput (bit/sec)"  ETV
vector 390  University.whttpStudents[0].wlan[0].outputHook[0]  packet/sec  ETV
vector 357  University.mainR.ppp[0].outputHook[0]  "thruput (bit/sec)"  ETV
vector 358  University.mainR.ppp[0].outputHook[0]  packet/sec  ETV
vector 355  University.remoteR.ppp[0].inputHook[0]  "thruput (bit/sec)"  ETV
vector 356  University.remoteR.ppp[0].inputHook[0]  packet/sec  ETV
vector 137  University.whttpStudents[0].tcpApp[0]  rcvdPk:vector(packetBytes)  ETV
attr interpolationmode  none
attr source  rcvdPk
attr title  "packets received, vector(packetBytes)"
vector 139  University.whttpStudents[0].tcpApp[0]  endToEndDelay:vector  ETV
attr interpolationmode  none
attr source  messageAge(rcvdPk)
attr title  "end-to-end delay, vector"
attr unit  s
vector 324  University.whostFTP.tcpApp[0]  numActiveSessions:vector  ETV
attr interpolationmode  sample-hold
attr source  sum(connect)
attr title  "number of active sessions, vector"
vector 248  University.whttpStudents[9].tcpApp[0]  numActiveSessions:vector  ETV
attr interpolationmode  sample-hold
attr source  sum(connect)
attr title  "number of active sessions, vector"
vector 236  University.whttpStudents[8].tcpApp[0]  numActiveSessions:vector  ETV
attr interpolationmode  sample-hold
attr source  sum(connect)
attr title  "number of active sessions, vector"
vector 152  University.whttpStudents[1].tcpApp[0]  numActiveSessions:vector  ETV
attr interpolationmode  sample-hold
attr source  sum(connect)
attr title  "number of active sessions, vector"
vector 296  University.whttpStudents[13].tcpApp[0]  numActiveSessions:vector  ETV
attr interpolationmode  sample-hold
attr source  sum(connect)
attr title  "number of active sessions, vector"
vector 284  University.whttpStudents[12].tcpApp[0]  numActiveSessions:vector  ETV
attr interpolationmode  sample-hold
attr source  sum(connect)
attr title  "number of active sessions, vector"
vector 188  University.whttpStudents[4].tcpApp[0]  numActiveSessions:vector  ETV
attr interpolationmode  sample-hold
attr source  sum(connect)
attr title  "number of active sessions, vector"
vector 349  University.remoteR.eth[1].outputHook[0]  "thruput (bit/sec)"  ETV
vector 350  University.remoteR.eth[1].outputHook[0]  packet/sec  ETV
vector 387  University.CCTV.eth[0].inputHook[0]  "thruput (bit/sec)"  ETV
vector 388  University.CCTV.eth[0].inputHook[0]  packet/sec  ETV
64	14410 2883113 70142 63579803 5.021950185468 3252.981950185468 81200 10240 10240 831488000 8514437120000
65	2897523 3613906 70142 63579803 5.021950185468 3252.981950185468 81200 0.017080129996 0.017143463329 1386.9659754766 23.6905761023
82	6511429 2801676 70154 63579815 5.029448181616 3252.989448181616 81200 1400 1400 113680000 159152000000
83	9313105 2801919 70155 63579816 5.033253113599 3252.993253113599 81200 1400 1400 113680000 159152000000
84	12115024 3613414 70154 63579815 5.029448181616 3252.989448181616 81200 0.016345623957 0.148074239922 1331.5186382053 21.901428767835
101	15728438 5609 394224 63422013 37.677075370436 3238.459736052963 174 1 1 174 174
102	15734047 6503 394224 63422013 37.677075370436 3238.459736052963 174 2635 3529881 135277047 2.0840211902108e+14
103	15740550 7869 394224 63422013 37.677075370436 3238.459736052963 174 0.018340314051 0.024403024187 3.295643917717 0.062705733988641
119	15748419 2964353 69822 63579836 5.004870055472 3253.004870055472 81201 10240 10240 831498240 8514541977600
137	18712772 6525 844250 63439384 42.791143399677 3238.652938591496 174 2635 3529881 135277047 2.0840211902108e+14
138	18719297 5632 393664 63421292 37.658735056385 3238.441341738912 174 1 1 174 174
139	18724929 7875 844250 63439384 42.791143399677 3238.652938591496 174 0.062510413183 6.785835339319 415.30129898368 1885.8962343604
140	18732804 11260 392712 63439384 37.627709628219 3238.652938591496 348 0 1 174 174
152	18744064 1128 1359606 62712541 83.796886508421 3182.35611564523 34 1 34 595 13685
164	18745192 1191 237502 63517887 21.780607214876 3246.566263803568 36 1 36 666 16206
176	18746383 1157 118927 62511347 10.001610397129 3175.555960870897 35 1 35 630 14910
188	18747540 1128 2259665 63215354 135.912225615578 3217.324795174706 34 1 34 595 13685
200	18748668 1158 177129 63153865 15.724158892207 3210.91748427755 35 1 35 630 14910
212	18749826 1220 106009 63363500 8.732386982976 3232.532364812688 37 1 37 703 17575
224	18751046 1161 235822 62541520 21.682553176164 3178.578127798721 35 1 35 630 14910
236	18752207 1130 1353294 63458499 83.162283086103 3240.522554543902 34 1 34 595 13685
248	18753337 1223 1352718 63405024 83.108104150505 3236.783725486283 37 1 37 703 17575
260	18754560 1224 168517 63288686 14.864725510097 3224.826833927397 37 1 37 703 17575
272	18755784 1256 121100 62891276 10.163123645428 3200.679055732954 38 1 38 741 19019
284	18757040 1161 1386184 62872926 86.478270746133 3198.795057576602 35 1 35 630 14910
296	18758201 1125 1370763 62523600 84.927448660126 3176.755942451845 34 1 34 595 13685
306	18759326 2883116 69916 63579577 5.013102557659 3252.973102557659 81200 1400 1400 113680000 159152000000
324	21642442 874 1274839 63290448 75 3225 43 1 43 946 27434
345	21643316 35449 119013 63421240 8.73245881957 3210.161265747338 766 7.794609317532 11285926.607781 919013544.77352 4.5179673587325e+15
346	21678765 35765 119013 63421240 8.73245881957 3210.161265747338 766 0.034797363024696 941.0613179824 77113.925255296 31633063.725351
347	21714530 120700 79559 63573948 5.01349151495 3251.37349151495 3244 283544.50855693 585658.72328337 957543671.63447 2.8574383689316e+14
348	21835230 108826 79559 63573948 5.01349151495 3251.37349151495 3244 25 929.42527494909 177715.57931824 39426209.722866
349	21944056 1212 4154289 63464075 120.044875865472 3121.044875865472 26 1.8660446517827 1.8660446517827 48.517160946351 90.535188703621
350	21945268 1290 4154289 63464075 120.044875865472 3121.044875865472 26 0.0083305564811729 0.0083305564811729 0.2165944685105 0.0018043524534363
351	21946558 125086 79394 63579872 5.004992185472 3252.005115225471 3248 2077600 2089367.2027084 6748062591.0587 1.4019811941699e+16
352	22071644 112102 79394 63579872 5.004992185472 3252.005115225471 3248 175 176 568427.97834717 99479820.378592
353	22183746 125047 79396 63570329 5.004992185472 3251.005115225471 3247 2363200 2654784 7704502699.8774 1.8284531088442e+16
354	22308793 112072 79396 63570329 5.004992185472 3251.005115225471 3247 200 1111 746294.97516007 203124668.96985
355	22420865 23520 574355 63421238 37.658659064811 3210.161265747338 508 38.313675193215 11326545.796877 888328074.54479 4.4879573932254e+15
356	22444385 23552 574355 63421238 37.658659064811 3210.161265747338 508 0.045056719866686 945.80508610254 74347.045908333 31386029.065924
357	22467937 23484 574324 63421218 37.648622398145 3210.151229080672 508 37.168592076108 10516854.471897 1006891086.4748 5.9238737130179e+15
358	22491421 23511 574324 63421218 37.648622398145 3210.151229080672 508 0.045056326841204 876.97252152795 84232.75773465 41405758.133362
359	22514932 125108 79617 63570914 5.015996852138 3251.05800618547 3247 2319702.7388482 2654784 7704511057.9805 1.8284569230678e+16
360	22640040 112205 79617 63570914 5.015996852138 3251.05800618547 3247 200 1111 746292.81046114 203040407.71309
361	22752245 121784 79711 63570635 5.038253113599 3251.038253113599 3247 296800 296800 963709600 2.8602900928e+14
362	22874029 108796 79711 63570635 5.038253113599 3251.038253113599 3247 50 50 162350 8117500
363	22982825 121784 79708 63570632 5.038253113599 3251.038253113599 3247 285600 285600 927343200 2.6484921792e+14
364	23104609 108796 79708 63570632 5.038253113599 3251.038253113599 3247 25 25 81175 2029375
365	23213405 78122 95382 63546448 6.128787714631 3245.689168215175 1695 125.06588641955 291514.79276979 28940761.503663 3308266280941
366	23291527 78299 95382 63546448 6.128787714631 3245.689168215175 1695 0.29312317129581 909.98374526793 88944.093250862 32118951.230066
367	23369826 77901 95617 63546683 6.138029303169 3245.698409803713 1690 68.786237530751 11029557.244941 1125425309.447 5.97617193038e+15
368	23447727 78369 95617 63546683 6.138029303169 3245.698409803713 1690 0.19541544753054 921.06914376433 97130.550792041 42143274.569907
369	23526096 125083 79619 63570916 5.015996852138 3251.05800618547 3247 2020054.4689201 2087723.8321821 6745988903.7087 1.4015515745776e+16
370	23651179 112177 79619 63570916 5.015996852138 3251.05800618547 3247 170.21539985079 175.8419766769 568226.80453659 99440034.986183
375	23763356 125083 79624 63570921 5.015996852138 3251.05800618547 3247 2020054.4689201 2087723.8321821 6745988903.7087 1.4015515745776e+16
376	23888439 112177 79624 63570921 5.015996852138 3251.05800618547 3247 170.21539985079 175.8419766769 568226.80453659 99440034.986183
377	24000616 121784 79703 63570627 5.033253113599 3251.033253113599 3247 285600 285600 927343200 2.6484921792e+14
378	24122400 108796 79703 63570627 5.033253113599 3251.033253113599 3247 25 25 81175 2029375
379	24231196 121822 79363 63579832 5.003253113599 3252.003253113599 3248 285376 308224 964006400 2.8611736053555e+14
380	24353018 108830 79363 63579832 5.003253113599 3252.003253113599 3248 49 51 162400 8120002
381	24461848 77799 95452 63546661 6.136322713961 3245.696703214505 1690 68.786237530751 16033358.938524 1162495266.0483 6.6194850476155e+15
382	24539647 78244 95452 63546661 6.136322713961 3245.696703214505 1690 0.19541544753054 1341.9336156783 100220.43735757 46639843.914207
383	24617891 78197 95448 63546660 6.136322713961 3245.696703214505 1695 125.06588641955 291514.79276979 28940767.11689 3308267973904
384	24696088 78378 95448 63546660 6.136322713961 3245.696703214505 1695 0.29312317129581 909.98374526793 88944.110716889 32118967.65571
385	24774466 125070 79370 63579839 5.004870055472 3252.004870055472 3248 2077600 2077824 6748050848 1.4019763008484e+16
386	24899536 112078 79370 63579839 5.004870055472 3252.004870055472 3248 175 176 568427 99479477
387	25011614 1212 4154296 63464082 120.044881675472 3121.044881675472 26 1.8660446517827 1.8660446517827 48.517160946351 90.535188703621
388	25012826 1290 4154296 63464082 120.044881675472 3121.044881675472 26 0.0083305564811729 0.0083305564811729 0.2165944685105 0.0018043524534363
389	25014116 23485 573336 63420801 37.627709628219 3210.129831187935 508 17.301183229699 292187.25589101 23479081.088516 3127136334326.3
390	25037601 23496 573336 63420801 37.627709628219 3210.129831187935 508 0.054066197592811 913.0851746594 73353.78145438 30523954.260009
391	25061097 35414 119142 63421288 8.733547031144 3210.161341738912 766 7.7945840930516 10872078.613121 913863249.86243 4.4511387591511e+15
392	25096511 35700 119142 63421288 8.733547031144 3210.161341738912 766 0.034797250415409 907.2587214573 76682.391072246 31165253.070161
399	25132211 6355 243995 63313310 10.411710494931 3203.35611564523 172 3.3680441235938 202.66666666667 9256.7578873663 955809.73935763
400	25138566 8255 243995 63313310 10.411710494931 3203.35611564523 172 0.0087709482385255 0.66666666666667 25.479268945909 7.9038415123106
401	25146821 15431 119172 63126810 8.733547041564 3200.680215770503 333 2.6850338022873 652.23830685851 21004.48923452 3209007.47782
402	25162252 15832 119172 63126810 8.733547041564 3200.680215770503 333 0.011986758045926 2.9117781556183 93.770041225534 63.95502785834
409	25178084 6520 268156 63546907 21.780607214876 3246.566263803568 176 4.3174334354888 202.66666666667 9584.5177905108 989796.75006677
410	25184604 8433 268156 63546907 21.780607214876 3246.566263803568 176 0.011243316238252 0.66666666666667 26.344222927594 8.115550528879
411	25193037 15430 119124 63126758 8.73354701972 3200.680215748659 334 2.6850338022873 652.23830685851 21164.831504463 3234172.7456373
412	25208467 15836 119124 63126758 8.73354701972 3200.680215748659 334 0.011986758045926 2.9117781556183 94.485854930639 64.456567794111
419	25224303 6459 149780 63247028 10.001610397129 3196.555960870897 174 3.8854071520246 202.66666666667 9564.29428137 1016990.215333
420	25230762 8339 149780 63247028 10.001610397129 3196.555960870897 174 0.010118247791731 0.66666666666667 26.513389403301 8.5936414746624
421	25239101 15428 119233 63126752 8.733547019378 3200.680215748317 333 2.6850338022873 652.23830685851 21004.427101997 3208967.8177245
422	25254529 15833 119233 63126752 8.733547019378 3200.680215748317 333 0.011986758045926 2.9117781556183 93.769763848199 63.954237438706
429	25270362 6385 141166 63419735 6.118675202526 3226.324795174706 172 4.3738976062974 202.66666666667 9376.31214708 985708.10469745
430	25276747 8246 141166 63419735 6.118675202526 3226.324795174706 172 0.011390358349733 0.66666666666667 25.970408027215 8.2851787504309
431	25284993 15418 119196 63126834 8.733547045009 3200.680215773948 333 2.6850338022873 652.23830685851 21004.438493413 3208976.8377164
432	25300411 15826 119196 63126834 8.733547045009 3200.680215773948 333 0.011986758045926 2.9117781556183 93.769814702736 63.954417205764
439	25316237 6415 206765 63357468 15.724158892207 3219.91748427755 173 4.2364988259255 202.66666666667 9493.2251410162 1013232.2968781
440	25322652 8294 206765 63357468 15.724158892207 3219.91748427755 173 0.011032549025848 0.66666666666667 26.250762225203 8.5465787366334
441	25330946 15432 119184 63126822 8.733547044287 3200.680215773226 333 2.6850338022873 652.23830685851 21004.388362661 3208965.8850771
442	25346378 15828 119184 63126822 8.733547044287 3200.680215773226 333 0.011986758045926 2.9117781556183 93.769590904735 63.954198921339
449	25362206 6728 137247 63468350 8.732386982976 3235.532364812688 182 4.5534884073547 202.66666666667 10098.643494183 1087907.9343672
450	25368934 8705 137247 63468350 8.732386982976 3235.532364812688 182 0.011858042727486 0.66666666666667 28.04641612019 9.2657328476757
451	25377639 15432 119148 63126786 8.733667036164 3200.680215765103 333 2.6850338022873 652.23830685851 21004.3939283 3208966.1249376
452	25393071 15832 119148 63126786 8.733667036164 3200.680215765103 333 0.011986758045926 2.9117781556183 93.76961575134 63.954203701723
459	25408903 6481 266674 63276628 21.682553176164 3199.578127798721 174 5.1270413232078 202.66666666667 9560.8771243682 1016793.0139302
460	25415384 8354 266674 63276628 21.682553176164 3199.578127798721 174 0.01335167011252 0.66666666666667 26.492180523743 8.5904975468827
461	25423738 15484 119160 63126798 8.733547038111 3200.68021576705 334 2.6850338022873 652.23830685851 21164.796737313 3234154.83394
462	25439222 15893 119160 63126798 8.733547038111 3200.68021576705 334 0.011986758045926 2.9117781556183 94.485699720148 64.456210816724
469	25455115 6305 158021 63546194 7.804865538332 3243.522554543902 171 4.3413574720789 202.66666666667 9308.9983153206 994534.58141843
470	25461420 8210 158021 63546194 7.804865538332 3243.522554543902 171 0.01138388073512 0.66666666666667 25.72933096663 8.4112844196131
471	25469630 15402 119202 63126840 8.73354704585 3200.680215774789 333 2.6850338022873 652.23830685851 21004.459386663 3209011.9281632
472	25485032 15813 119202 63126840 8.73354704585 3200.680215774789 333 0.011986758045926 2.9117781556183 93.769907976173 63.955116552998
479	25500845 6849 249219 63509891 10.90208848396 3239.783725486283 185 6.0106158129312 202.66666666667 9958.6459929762 1000714.3174324
480	25507694 8844 249219 63509891 10.90208848396 3239.783725486283 185 0.015652645346175 0.66666666666667 27.294890414074 8.0781506085539
481	25516538 15417 119136 63126770 8.733547030119 3200.680215759058 333 2.6850338022873 652.23830685851 21004.442916154 3208966.4092472
482	25531955 15826 119136 63126770 8.733547030119 3200.680215759058 333 0.011986758045926 2.9117781556183 93.769834447114 63.954209367969
489	25547781 6774 198551 63510451 14.864725510097 3233.826833927397 183 3.7920703053978 202.66666666667 10048.380177017 1059274.1712177
490	25554555 8771 198551 63510451 14.864725510097 3233.826833927397 183 0.0098751830869735 0.66666666666667 27.740449027949 8.8703417502805
491	25563326 15430 119166 63126804 8.733547038217 3200.680215767156 333 2.6850338022873 652.23830685851 21004.421000803 3208979.2850707
492	25578756 15841 119166 63126804 8.733547038217 3200.680215767156 333 0.011986758045926 2.9117781556183 93.769736610729 63.954465981161
499	25594597 7023 151536 63508587 10.163123645428 3221.679055732954 189 4.582464630957 202.66666666667 10363.153771506 1083955.8006347
500	25601620 9051 151536 63508587 10.163123645428 3221.679055732954 189 0.011933501643117 0.66666666666667 28.617428292576 9.0527534104942
501	25610671 15464 119116 63126746 8.733547015125 3200.680335744064 334 2.6850338022873 652.17943780145 21164.617673767 3234016.056492
502	25626135 15876 119116 63126746 8.733547015125 3200.680335744064 334 0.011986758045926 2.9115153473279 94.484900329317 64.453445003429
509	25642011 6584 156252 63490420 7.634997786187 3219.795057576602 178 4.1822087267908 202.66666666667 9737.9295862434 1046004.644101
510	25648595 8535 156252 63490420 7.634997786187 3219.795057576602 178 0.010891168559351 0.66666666666667 27.05118708117 8.9480693483553
511	25657130 15430 119130 63126764 8.733547026414 3200.680215755353 333 2.6850338022873 652.23830685851 21004.374440469 3208960.4489777
512	25672560 15838 119130 63126764 8.733547026414 3200.680215755353 333 0.011986758045926 2.9117781556183 93.769528752095 63.95409058071
519	25688398 6404 244860 63258882 10.470197521395 3197.755942451845 172 2.8415857080363 202.66666666667 9322.5572380958 977710.85426253
520	25694802 8241 244860 63258882 10.470197521395 3197.755942451845 172 0.0073999627813445 0.66666666666667 25.795681488322 8.2013622392081
521	25703043 15414 119190 63126828 8.733547044996 3200.680215773935 333 2.6850338022873 652.23830685851 21004.349410403 3208922.9120471
522	25718457 15814 119190 63126828 8.733547044996 3200.680215773935 333 0.011986758045926 2.9117781556183 93.769417010727 63.953342475428