file 49018262 1471642492                                        
version 2
run _18to20on-1-20160819-23:15:38-21449
attr configname _18to20on
attr datetime 20160819-23:15:38
attr experiment _18to20on
attr inifile omnetpp.ini
attr iterationvars $0=18
attr iterationvars2 "$0=18, $repetition=1"
attr measurement $0=18
attr network University
attr processid 21449
attr repetition 1
attr replication #1
attr resultdir results
attr runnumber 1
attr seedset 1

vector 354  University.whostVideoConf.udpApp[0]  sentPk:vector(packetBytes)  ETV
attr interpolationmode  none
attr source  sentPk
attr title  "packets sent, vector(packetBytes)"
vector 64  University.ccTVMonitoringHost.udpApp[0]  rcvdPk:vector(packetBytes)  ETV
attr interpolationmode  none
attr source  rcvdPk
attr title  "packets received, vector(packetBytes)"
vector 65  University.ccTVMonitoringHost.udpApp[0]  endToEndDelay:vector  ETV
attr interpolationmode  none
attr source  messageAge(rcvdPk)
attr title  "end-to-end delay, vector"
attr unit  s
vector 82  University.profLaptop.udpApp[0]  rcvdPk:vector(packetBytes)  ETV
attr interpolationmode  none
attr source  rcvdPk
attr title  "packets received, vector(packetBytes)"
vector 84  University.profLaptop.udpApp[0]  rcvdPkLifetime:vector  ETV
attr interpolationmode  none
attr source  messageAge(rcvdPk)
attr title  "received packet lifetime, vector"
attr unit  s
vector 83  University.profLaptop.udpApp[0]  sentPk:vector(packetBytes)  ETV
attr interpolationmode  none
attr source  sentPk
attr title  "packets sent, vector(packetBytes)"
vector 119  University.CCTV.udpApp[0]  sentPk:vector(packetBytes)  ETV
attr interpolationmode  none
attr source  sentPk
attr title  "packets sent, vector(packetBytes)"
vector 140  University.whttpStudents[0].tcpApp[0]  numActiveSessions:vector  ETV
attr interpolationmode  sample-hold
attr source  sum(connect)
attr title  "number of active sessions, vector"
vector 200  University.whttpStudents[5].tcpApp[0]  numActiveSessions:vector  ETV
attr interpolationmode  sample-hold
attr source  sum(connect)
attr title  "number of active sessions, vector"
vector 138  University.whttpStudents[0].tcpApp[0]  sentPk:vector(packetBytes)  ETV
attr interpolationmode  none
attr source  sentPk
attr title  "packets sent, vector(packetBytes)"
vector 101  University.Server.tcpApp[0]  rcvdPk:vector(packetBytes)  ETV
attr interpolationmode  none
attr source  rcvdPk
attr title  "packets received, vector(packetBytes)"
vector 103  University.Server.tcpApp[0]  endToEndDelay:vector  ETV
attr interpolationmode  none
attr source  messageAge(rcvdPk)
attr title  "end-to-end delay, vector"
attr unit  s
vector 102  University.Server.tcpApp[0]  sentPk:vector(packetBytes)  ETV
attr interpolationmode  none
attr source  sentPk
attr title  "packets sent, vector(packetBytes)"
vector 411  University.mainR.ppp[1].inputHook[0]  "thruput (bit/sec)"  ETV
vector 412  University.mainR.ppp[1].inputHook[0]  packet/sec  ETV
vector 409  University.mainR.ppp[1].outputHook[0]  "thruput (bit/sec)"  ETV
vector 410  University.mainR.ppp[1].outputHook[0]  packet/sec  ETV
vector 617  University.whostVideoConf.wlan[0].outputHook[0]  "thruput (bit/sec)"  ETV
vector 618  University.whostVideoConf.wlan[0].outputHook[0]  packet/sec  ETV
vector 639  University.accessPoint.wlan[0].inputHook[0]  "thruput (bit/sec)"  ETV
vector 640  University.accessPoint.wlan[0].inputHook[0]  packet/sec  ETV
vector 647  University.accessPoint.eth[0].outputHook[0]  "thruput (bit/sec)"  ETV
vector 648  University.accessPoint.eth[0].outputHook[0]  packet/sec  ETV
vector 395  University.remoteR.eth[0].inputHook[0]  "thruput (bit/sec)"  ETV
vector 396  University.remoteR.eth[0].inputHook[0]  packet/sec  ETV
vector 401  University.remoteR.ppp[0].outputHook[0]  "thruput (bit/sec)"  ETV
vector 402  University.remoteR.ppp[0].outputHook[0]  packet/sec  ETV
vector 427  University.profLaptop.ppp[0].inputHook[0]  "thruput (bit/sec)"  ETV
vector 428  University.profLaptop.ppp[0].inputHook[0]  packet/sec  ETV
vector 407  University.mainR.ppp[0].inputHook[0]  "thruput (bit/sec)"  ETV
vector 408  University.mainR.ppp[0].inputHook[0]  packet/sec  ETV
vector 417  University.mainR.ppp[3].outputHook[0]  "thruput (bit/sec)"  ETV
vector 418  University.mainR.ppp[3].outputHook[0]  packet/sec  ETV
vector 423  University.ccTVMonitoringHost.ppp[0].inputHook[0]  "thruput (bit/sec)"  ETV
vector 424  University.ccTVMonitoringHost.ppp[0].inputHook[0]  packet/sec  ETV
vector 425  University.profLaptop.ppp[0].outputHook[0]  "thruput (bit/sec)"  ETV
vector 426  University.profLaptop.ppp[0].outputHook[0]  packet/sec  ETV
vector 433  University.CCTV.eth[0].outputHook[0]  "thruput (bit/sec)"  ETV
vector 434  University.CCTV.eth[0].outputHook[0]  packet/sec  ETV
vector 399  University.remoteR.eth[1].inputHook[0]  "thruput (bit/sec)"  ETV
vector 400  University.remoteR.eth[1].inputHook[0]  packet/sec  ETV
vector 149  University.whttpStudents[1].tcpApp[0]  rcvdPk:vector(packetBytes)  ETV
attr interpolationmode  none
attr source  rcvdPk
attr title  "packets received, vector(packetBytes)"
vector 151  University.whttpStudents[1].tcpApp[0]  endToEndDelay:vector  ETV
attr interpolationmode  none
attr source  messageAge(rcvdPk)
attr title  "end-to-end delay, vector"
attr unit  s
vector 152  University.whttpStudents[1].tcpApp[0]  numActiveSessions:vector  ETV
attr interpolationmode  sample-hold
attr source  sum(connect)
attr title  "number of active sessions, vector"
vector 457  University.whttpStudents[2].wlan[0].outputHook[0]  "thruput (bit/sec)"  ETV
vector 458  University.whttpStudents[2].wlan[0].outputHook[0]  packet/sec  ETV
vector 447  University.whttpStudents[1].wlan[0].outputHook[0]  "thruput (bit/sec)"  ETV
vector 448  University.whttpStudents[1].wlan[0].outputHook[0]  packet/sec  ETV
vector 405  University.mainR.ppp[0].outputHook[0]  "thruput (bit/sec)"  ETV
vector 406  University.mainR.ppp[0].outputHook[0]  packet/sec  ETV
vector 403  University.remoteR.ppp[0].inputHook[0]  "thruput (bit/sec)"  ETV
vector 404  University.remoteR.ppp[0].inputHook[0]  packet/sec  ETV
vector 393  University.remoteR.eth[0].outputHook[0]  "thruput (bit/sec)"  ETV
vector 394  University.remoteR.eth[0].outputHook[0]  packet/sec  ETV
vector 649  University.accessPoint.eth[0].inputHook[0]  "thruput (bit/sec)"  ETV
vector 650  University.accessPoint.eth[0].inputHook[0]  packet/sec  ETV
vector 637  University.accessPoint.wlan[0].outputHook[0]  "thruput (bit/sec)"  ETV
vector 638  University.accessPoint.wlan[0].outputHook[0]  packet/sec  ETV
vector 459  University.whttpStudents[2].wlan[0].inputHook[0]  "thruput (bit/sec)"  ETV
vector 460  University.whttpStudents[2].wlan[0].inputHook[0]  packet/sec  ETV
vector 413  University.mainR.ppp[2].outputHook[0]  "thruput (bit/sec)"  ETV
vector 414  University.mainR.ppp[2].outputHook[0]  packet/sec  ETV
vector 431  University.Server.ppp[0].inputHook[0]  "thruput (bit/sec)"  ETV
vector 432  University.Server.ppp[0].inputHook[0]  packet/sec  ETV
vector 439  University.whttpStudents[0].wlan[0].inputHook[0]  "thruput (bit/sec)"  ETV
vector 440  University.whttpStudents[0].wlan[0].inputHook[0]  packet/sec  ETV
vector 437  University.whttpStudents[0].wlan[0].outputHook[0]  "thruput (bit/sec)"  ETV
vector 438  University.whttpStudents[0].wlan[0].outputHook[0]  packet/sec  ETV
vector 429  University.Server.ppp[0].outputHook[0]  "thruput (bit/sec)"  ETV
vector 430  University.Server.ppp[0].outputHook[0]  packet/sec  ETV
vector 415  University.mainR.ppp[2].inputHook[0]  "thruput (bit/sec)"  ETV
vector 416  University.mainR.ppp[2].inputHook[0]  packet/sec  ETV
vector 487  University.whttpStudents[5].wlan[0].outputHook[0]  "thruput (bit/sec)"  ETV
vector 488  University.whttpStudents[5].wlan[0].outputHook[0]  packet/sec  ETV
vector 248  University.whttpStudents[9].tcpApp[0]  numActiveSessions:vector  ETV
attr interpolationmode  sample-hold
attr source  sum(connect)
attr title  "number of active sessions, vector"
vector 539  University.whttpStudents[10].wlan[0].inputHook[0]  "thruput (bit/sec)"  ETV
vector 540  University.whttpStudents[10].wlan[0].inputHook[0]  packet/sec  ETV
vector 629  University.whostFTP.wlan[0].inputHook[0]  "thruput (bit/sec)"  ETV
vector 630  University.whostFTP.wlan[0].inputHook[0]  packet/sec  ETV
vector 499  University.whttpStudents[6].wlan[0].inputHook[0]  "thruput (bit/sec)"  ETV
vector 500  University.whttpStudents[6].wlan[0].inputHook[0]  packet/sec  ETV
vector 469  University.whttpStudents[3].wlan[0].inputHook[0]  "thruput (bit/sec)"  ETV
vector 470  University.whttpStudents[3].wlan[0].inputHook[0]  packet/sec  ETV
vector 579  University.whttpStudents[14].wlan[0].inputHook[0]  "thruput (bit/sec)"  ETV
vector 580  University.whttpStudents[14].wlan[0].inputHook[0]  packet/sec  ETV
vector 489  University.whttpStudents[5].wlan[0].inputHook[0]  "thruput (bit/sec)"  ETV
vector 490  University.whttpStudents[5].wlan[0].inputHook[0]  packet/sec  ETV
vector 569  University.whttpStudents[13].wlan[0].inputHook[0]  "thruput (bit/sec)"  ETV
vector 570  University.whttpStudents[13].wlan[0].inputHook[0]  packet/sec  ETV
vector 559  University.whttpStudents[12].wlan[0].inputHook[0]  "thruput (bit/sec)"  ETV
vector 560  University.whttpStudents[12].wlan[0].inputHook[0]  packet/sec  ETV
vector 509  University.whttpStudents[7].wlan[0].inputHook[0]  "thruput (bit/sec)"  ETV
vector 510  University.whttpStudents[7].wlan[0].inputHook[0]  packet/sec  ETV
vector 609  University.whttpStudents[17].wlan[0].inputHook[0]  "thruput (bit/sec)"  ETV
vector 610  University.whttpStudents[17].wlan[0].inputHook[0]  packet/sec  ETV
vector 619  University.whostVideoConf.wlan[0].inputHook[0]  "thruput (bit/sec)"  ETV
vector 620  University.whostVideoConf.wlan[0].inputHook[0]  packet/sec  ETV
vector 479  University.whttpStudents[4].wlan[0].inputHook[0]  "thruput (bit/sec)"  ETV
vector 480  University.whttpStudents[4].wlan[0].inputHook[0]  packet/sec  ETV
vector 519  University.whttpStudents[8].wlan[0].inputHook[0]  "thruput (bit/sec)"  ETV
vector 520  University.whttpStudents[8].wlan[0].inputHook[0]  packet/sec  ETV
vector 599  University.whttpStudents[16].wlan[0].inputHook[0]  "thruput (bit/sec)"  ETV
vector 600  University.whttpStudents[16].wlan[0].inputHook[0]  packet/sec  ETV
vector 549  University.whttpStudents[11].wlan[0].inputHook[0]  "thruput (bit/sec)"  ETV
vector 550  University.whttpStudents[11].wlan[0].inputHook[0]  packet/sec  ETV
vector 589  University.whttpStudents[15].wlan[0].inputHook[0]  "thruput (bit/sec)"  ETV
vector 590  University.whttpStudents[15].wlan[0].inputHook[0]  packet/sec  ETV
vector 449  University.whttpStudents[1].wlan[0].inputHook[0]  "thruput (bit/sec)"  ETV
vector 450  University.whttpStudents[1].wlan[0].inputHook[0]  packet/sec  ETV
vector 529  University.whttpStudents[9].wlan[0].inputHook[0]  "thruput (bit/sec)"  ETV
vector 530  University.whttpStudents[9].wlan[0].inputHook[0]  packet/sec  ETV
vector 537  University.whttpStudents[10].wlan[0].outputHook[0]  "thruput (bit/sec)"  ETV
vector 538  University.whttpStudents[10].wlan[0].outputHook[0]  packet/sec  ETV
vector 188  University.whttpStudents[4].tcpApp[0]  numActiveSessions:vector  ETV
attr interpolationmode  sample-hold
attr source  sum(connect)
attr title  "number of active sessions, vector"
vector 186  University.whttpStudents[4].tcpApp[0]  sentPk:vector(packetBytes)  ETV
attr interpolationmode  none
attr source  sentPk
attr title  "packets sent, vector(packetBytes)"
vector 527  University.whttpStudents[9].wlan[0].outputHook[0]  "thruput (bit/sec)"  ETV
vector 528  University.whttpStudents[9].wlan[0].outputHook[0]  packet/sec  ETV
vector 137  University.whttpStudents[0].tcpApp[0]  rcvdPk:vector(packetBytes)  ETV
attr interpolationmode  none
attr source  rcvdPk
attr title  "packets received, vector(packetBytes)"
vector 139  University.whttpStudents[0].tcpApp[0]  endToEndDelay:vector  ETV
attr interpolationmode  none
attr source  messageAge(rcvdPk)
attr title  "end-to-end delay, vector"
attr unit  s
vector 497  University.whttpStudents[6].wlan[0].outputHook[0]  "thruput (bit/sec)"  ETV
vector 498  University.whttpStudents[6].wlan[0].outputHook[0]  packet/sec  ETV
vector 477  University.whttpStudents[4].wlan[0].outputHook[0]  "thruput (bit/sec)"  ETV
vector 478  University.whttpStudents[4].wlan[0].outputHook[0]  packet/sec  ETV
vector 507  University.whttpStudents[7].wlan[0].outputHook[0]  "thruput (bit/sec)"  ETV
vector 508  University.whttpStudents[7].wlan[0].outputHook[0]  packet/sec  ETV
vector 176  University.whttpStudents[3].tcpApp[0]  numActiveSessions:vector  ETV
attr interpolationmode  sample-hold
attr source  sum(connect)
attr title  "number of active sessions, vector"
vector 236  University.whttpStudents[8].tcpApp[0]  numActiveSessions:vector  ETV
attr interpolationmode  sample-hold
attr source  sum(connect)
attr title  "number of active sessions, vector"
vector 174  University.whttpStudents[3].tcpApp[0]  sentPk:vector(packetBytes)  ETV
attr interpolationmode  none
attr source  sentPk
attr title  "packets sent, vector(packetBytes)"
vector 467  University.whttpStudents[3].wlan[0].outputHook[0]  "thruput (bit/sec)"  ETV
vector 468  University.whttpStudents[3].wlan[0].outputHook[0]  packet/sec  ETV
vector 161  University.whttpStudents[2].tcpApp[0]  rcvdPk:vector(packetBytes)  ETV
attr interpolationmode  none
attr source  rcvdPk
attr title  "packets received, vector(packetBytes)"
vector 163  University.whttpStudents[2].tcpApp[0]  endToEndDelay:vector  ETV
attr interpolationmode  none
attr source  messageAge(rcvdPk)
attr title  "end-to-end delay, vector"
attr unit  s
vector 164  University.whttpStudents[2].tcpApp[0]  numActiveSessions:vector  ETV
attr interpolationmode  sample-hold
attr source  sum(connect)
attr title  "number of active sessions, vector"
vector 150  University.whttpStudents[1].tcpApp[0]  sentPk:vector(packetBytes)  ETV
attr interpolationmode  none
attr source  sentPk
attr title  "packets sent, vector(packetBytes)"
vector 517  University.whttpStudents[8].wlan[0].outputHook[0]  "thruput (bit/sec)"  ETV
vector 518  University.whttpStudents[8].wlan[0].outputHook[0]  packet/sec  ETV
vector 627  University.whostFTP.wlan[0].outputHook[0]  "thruput (bit/sec)"  ETV
vector 628  University.whostFTP.wlan[0].outputHook[0]  packet/sec  ETV
vector 162  University.whttpStudents[2].tcpApp[0]  sentPk:vector(packetBytes)  ETV
attr interpolationmode  none
attr source  sentPk
attr title  "packets sent, vector(packetBytes)"
vector 597  University.whttpStudents[16].wlan[0].outputHook[0]  "thruput (bit/sec)"  ETV
vector 598  University.whttpStudents[16].wlan[0].outputHook[0]  packet/sec  ETV
vector 607  University.whttpStudents[17].wlan[0].outputHook[0]  "thruput (bit/sec)"  ETV
vector 608  University.whttpStudents[17].wlan[0].outputHook[0]  packet/sec  ETV
vector 567  University.whttpStudents[13].wlan[0].outputHook[0]  "thruput (bit/sec)"  ETV
vector 568  University.whttpStudents[13].wlan[0].outputHook[0]  packet/sec  ETV
vector 272  University.whttpStudents[11].tcpApp[0]  numActiveSessions:vector  ETV
attr interpolationmode  sample-hold
attr source  sum(connect)
attr title  "number of active sessions, vector"
vector 547  University.whttpStudents[11].wlan[0].outputHook[0]  "thruput (bit/sec)"  ETV
vector 548  University.whttpStudents[11].wlan[0].outputHook[0]  packet/sec  ETV
vector 320  University.whttpStudents[15].tcpApp[0]  numActiveSessions:vector  ETV
attr interpolationmode  sample-hold
attr source  sum(connect)
attr title  "number of active sessions, vector"
vector 587  University.whttpStudents[15].wlan[0].outputHook[0]  "thruput (bit/sec)"  ETV
vector 588  University.whttpStudents[15].wlan[0].outputHook[0]  packet/sec  ETV
vector 308  University.whttpStudents[14].tcpApp[0]  numActiveSessions:vector  ETV
attr interpolationmode  sample-hold
attr source  sum(connect)
attr title  "number of active sessions, vector"
vector 577  University.whttpStudents[14].wlan[0].outputHook[0]  "thruput (bit/sec)"  ETV
vector 578  University.whttpStudents[14].wlan[0].outputHook[0]  packet/sec  ETV
vector 185  University.whttpStudents[4].tcpApp[0]  rcvdPk:vector(packetBytes)  ETV
attr interpolationmode  none
attr source  rcvdPk
attr title  "packets received, vector(packetBytes)"
vector 187  University.whttpStudents[4].tcpApp[0]  endToEndDelay:vector  ETV
attr interpolationmode  none
attr source  messageAge(rcvdPk)
attr title  "end-to-end delay, vector"
attr unit  s
vector 284  University.whttpStudents[12].tcpApp[0]  numActiveSessions:vector  ETV
attr interpolationmode  sample-hold
attr source  sum(connect)
attr title  "number of active sessions, vector"
vector 173  University.whttpStudents[3].tcpApp[0]  rcvdPk:vector(packetBytes)  ETV
attr interpolationmode  none
attr source  rcvdPk
attr title  "packets received, vector(packetBytes)"
vector 175  University.whttpStudents[3].tcpApp[0]  endToEndDelay:vector  ETV
attr interpolationmode  none
attr source  messageAge(rcvdPk)
attr title  "end-to-end delay, vector"
attr unit  s
vector 557  University.whttpStudents[12].wlan[0].outputHook[0]  "thruput (bit/sec)"  ETV
vector 558  University.whttpStudents[12].wlan[0].outputHook[0]  packet/sec  ETV
vector 372  University.whostFTP.tcpApp[0]  numActiveSessions:vector  ETV
attr interpolationmode  sample-hold
attr source  sum(connect)
attr title  "number of active sessions, vector"
vector 260  University.whttpStudents[10].tcpApp[0]  numActiveSessions:vector  ETV
attr interpolationmode  sample-hold
attr source  sum(connect)
attr title  "number of active sessions, vector"
vector 344  University.whttpStudents[17].tcpApp[0]  numActiveSessions:vector  ETV
attr interpolationmode  sample-hold
attr source  sum(connect)
attr title  "number of active sessions, vector"
vector 224  University.whttpStudents[7].tcpApp[0]  numActiveSessions:vector  ETV
attr interpolationmode  sample-hold
attr source  sum(connect)
attr title  "number of active sessions, vector"
vector 296  University.whttpStudents[13].tcpApp[0]  numActiveSessions:vector  ETV
attr interpolationmode  sample-hold
attr source  sum(connect)
attr title  "number of active sessions, vector"
vector 212  University.whttpStudents[6].tcpApp[0]  numActiveSessions:vector  ETV
attr interpolationmode  sample-hold
attr source  sum(connect)
attr title  "number of active sessions, vector"
vector 332  University.whttpStudents[16].tcpApp[0]  numActiveSessions:vector  ETV
attr interpolationmode  sample-hold
attr source  sum(connect)
attr title  "number of active sessions, vector"
vector 397  University.remoteR.eth[1].outputHook[0]  "thruput (bit/sec)"  ETV
vector 398  University.remoteR.eth[1].outputHook[0]  packet/sec  ETV
vector 435  University.CCTV.eth[0].inputHook[0]  "thruput (bit/sec)"  ETV
vector 436  University.CCTV.eth[0].inputHook[0]  packet/sec  ETV
64	18738 2573477 142578 163847958 5.0159338729 3023.9359338729 75474 10240 10240 772853760 7914022502400
65	2592215 3252727 142578 163847958 5.0159338729 3023.9359338729 75474 0.017080129996 0.018036796662 1289.279602822 22.024039880571
82	5844942 2638110 142627 163848026 5.021890539566 3023.941890539566 75473 1400 1400 105662200 147927080000
83	8483052 2638459 146736 163848027 5.037302294448 3023.957302294448 75474 1400 1400 105663600 147929040000
84	11121511 3391830 142627 163848026 5.021890539566 3023.941890539566 75473 0.017956666111 0.137987999444 1362.508719097 24.686781226197
101	14513341 19277 416589 163829878 5.806574920595 3023.795624656999 587 1 1 587 587
102	14532618 22301 416589 163829878 5.806574920595 3023.795624656999 587 293 6321038 467780420 7.4447812006256e+14
103	14554919 26896 416589 163829878 5.806574920595 3023.795624656999 587 0.026997862984 0.033250338218 16.226995206418 0.4497454763386
119	14581815 2789407 147320 163848034 5.038853742904 3023.958853742904 75474 10240 10240 772853760 7914022502400
137	17371222 4019 901471 163747542 12.305841867586 3017.934302250701 106 8330 5542129 88749469 1.5966140851129e+14
138	17375241 3501 406666 163799244 5.779567971109 3022.58950729558 107 1 1 107 107
139	17378742 4873 901471 163747542 12.305841867586 3017.934302250701 106 0.646811771274 73.82781927708 1071.6307592659 30647.33599481
140	17383615 6980 262697 163796827 5.400191217838 3022.376903378496 213 0 1 107 107
149	17390595 4685 475473 163311039 6.077261403223 2998.990806054638 123 5454 6321038 99544016 1.7811376229872e+14
150	17395280 4046 1593482 163805127 17.885568587113 3023.00615136808 123 1 1 123 123
151	17399326 5666 475473 163311039 6.077261403223 2998.990806054638 123 0.645750127317 47.245001360625 1237.430703713 32745.672691079
152	17404992 8225 475473 163801847 6.077261403223 3022.793547452548 246 -1 0 -123 123
161	17413217 4473 1591642 163607822 17.811607455258 3015.927919251719 117 293 4035561 103311654 1.6232759492112e+14
162	17417690 3825 2126786 162244886 21.382916662593 2984.829705411528 116 1 1 116 116
163	17421515 5412 1591642 163607822 17.811607455258 3015.927919251719 117 0.214379504119 54.513851998632 1306.0621713096 34207.16909794
164	17426927 7795 1591642 163607822 17.811607455258 3015.927919251719 233 -1 0 -117 117
173	17434722 4376 3835092 163583708 52.969533450418 3014.117396430513 115 6619 3911603 86188547 1.2035581754196e+14
174	17439098 3779 1571174 163479354 16.83257107256 3012.315806236663 115 1 1 115 115
175	17442877 5303 3835092 163583708 52.969533450418 3014.117396430513 115 0.645209842498 39.523438298246 1147.8172919606 28917.645138435
176	17448180 7560 1550087 163583708 16.618400187684 3014.117396430513 230 0 1 115 115
185	17455740 4748 3495172 163178345 47.547954566632 2993.990384695415 125 544 3580971 89836255 1.2526153849602e+14
186	17460488 4137 892264 163829298 11.823603507535 3023.768581742622 126 1 1 126 126
187	17464625 5748 3495172 163178345 47.547954566632 2993.990384695415 125 0.217875933679 43.587508563209 1144.6698956835 27480.055917509
188	17470373 8245 888494 163818186 11.609396554135 3023.554790949222 251 0 1 126 126
200	17478618 1173 353287 161422691 5.637287889868 2959.458894986544 35 1 35 630 14910
212	17479791 1178 6941882 163615193 123.163577920881 3016.380526405796 35 1 35 630 14910
224	17480969 1105 5327784 163228841 81.817054516972 2997.740872840657 33 1 33 561 12529
236	17482074 1104 1555779 161422994 16.651204778253 2959.483794396535 33 1 33 561 12529
248	17483178 1175 852583 161176534 9.165348165123 2952.784554161465 35 1 35 630 14910
260	17484353 1107 5197010 159806967 78.736017105264 2924.686338340523 33 1 33 561 12529
272	17485460 1177 2174634 161393375 22.602491234891 2957.147859888092 35 1 35 630 14910
284	17486637 1139 3812340 163617048 51.75340630929 3016.458999765767 34 1 34 595 13685
296	17487776 1141 5476481 161733521 87.891594046189 2973.139939332939 34 1 34 595 13685
308	17488917 1144 2687631 163678533 31.359253844391 3017.556135075801 34 1 34 595 13685
320	17490061 1110 2566979 162296147 26.504268278881 2986.248617155302 33 1 33 561 12529
332	17491171 1113 7664810 161406048 137.840312766328 2958.150249875921 33 1 33 561 12529
344	17492284 1147 5302112 162962503 80.221257834182 2989.456002527075 34 1 34 595 13685
354	17493431 2713968 142287 163848131 5.003933873455 3023.963933873455 75475 1400 1400 105665000 147931000000
372	20207399 831 4955897 163324471 75 3000 40 1 40 820 22140
393	20208230 123605 518088 163819579 5.383429103913 3022.589431284016 2641 54.756987240154 11010160 3639997943.7676 1.6815414191023e+16
394	20331835 123458 518088 163819579 5.383429103913 3022.589431284016 2641 0.17111558512548 918 305914.80574458 117442548.74372
395	20455293 119771 448458 163804566 5.004322831128 3021.964322831128 3008 278121.32367689 585110.33507173 963568265.22267 3.1794476786691e+14
396	20575064 110695 448458 163804566 5.004322831128 3021.964322831128 3008 25 926.42736221629 401139.73168683 143487293.31778
397	20685759 1130 12876146 163337315 120.038859552904 2880.958859552904 24 1.8660446517827 1.8660446517827 44.785071642786 83.570943418727
398	20686889 1202 12876146 163337315 120.038859552904 2880.958859552904 24 0.0083305564811729 0.0083305564811729 0.19993335554815 0.0016655561108643
399	20688091 117593 460974 163806606 5.038975872904 3022.039098912903 3018 2077600 2089367.2027084 6270214143.0587 1.3027033075269e+16
400	20805684 105529 460974 163806606 5.038975872904 3022.039098912903 3018 175 176 528175.97834717 92435368.378592
401	20911213 117617 448460 163806608 5.004322831128 3022.039098912903 3018 2363200 2649664 7237454111.4306 1.7365451414014e+16
402	21028830 105566 448460 163806608 5.004322831128 3022.039098912903 3018 200 1095 932305.15371679 379298927.4641
403	21134396 123512 518086 163819577 5.383429103913 3022.589431284016 2639 54.756987240154 11010160 3638854338.5377 1.6815298483028e+16
404	21257908 123363 518086 163819577 5.383429103913 3022.589431284016 2639 0.17111558512548 918 305690.63326949 117412742.68153
405	21381271 123136 518054 163819257 5.371524225229 3022.57939461735 2631 54.757012226228 11630444.805504 3828795078.2586 2.0200052345459e+16
406	21504407 123008 518054 163819257 5.371524225229 3022.57939461735 2631 0.17111566320696 969.20373379196 321539.8755577 140980302.59321
407	21627415 115971 450622 163807811 5.00998053957 3022.1359338729 3018 2294511.8327288 2649408 7237569711.2585 1.7366056176552e+16
408	21743386 104146 450622 163807811 5.00998053957 3022.1359338729 3018 198.44086784717 1094 932299.55498203 379335768.92518
409	21847532 114559 447759 163804832 5.002302294448 3022.002302294448 3018 285376 296800 895730976 2.6584969354138e+14
410	21962091 102487 447759 163804832 5.002302294448 3022.002302294448 3018 49 50 150899 7544901
411	22064578 114559 447756 163804829 5.002302294448 3022.002302294448 3018 285600 285600 861940800 2.4617029248e+14
412	22179137 102487 447756 163804829 5.002302294448 3022.002302294448 3018 25 25 75450 1886250
413	22281624 128210 520026 163814074 5.393525054497 3022.387015896726 2744 124.72516495536 287675.07128515 101821496.29918 12319635809047
414	22409834 128129 520026 163814074 5.393525054497 3022.387015896726 2744 0.38976614048551 897.98461489874 316029.29709419 119818800.32591
415	22537963 126692 545771 163819255 5.586019295121 3022.57939461735 2711 128 11682855.913147 3846911285.3548 2.0506027702197e+16
416	22664655 126698 545771 163819255 5.586019295121 3022.57939461735 2711 0.33333333333333 975.17418800423 326928.02770743 144030840.75016
417	22791353 115773 450624 163807813 5.00998053957 3022.1359338729 3018 2019993.2560567 2087723.8321821 6270262078.2036 1.3027244461805e+16
418	22907126 103936 450624 163807813 5.00998053957 3022.1359338729 3018 170.21024188491 175.8419766769 528155.42767691 92428235.041188
423	23011062 115773 450629 163807818 5.00998053957 3022.1359338729 3018 2019993.2560567 2087723.8321821 6270262078.2036 1.3027244461805e+16
424	23126835 103936 450629 163807818 5.00998053957 3022.1359338729 3018 170.21024188491 175.8419766769 528155.42767691 92428235.041188
425	23230771 114559 460329 163806566 5.037302294448 3022.037302294448 3018 285600 285600 861940800 2.4617029248e+14
426	23345330 102487 460329 163806566 5.037302294448 3022.037302294448 3018 25 25 75450 1886250
427	23447817 114559 449520 163805584 5.007302294448 3022.007302294448 3018 285376 296800 895730976 2.6584969354138e+14
428	23562376 102487 449520 163805584 5.007302294448 3022.007302294448 3018 49 50 150899 7544901
429	23664863 126489 536531 163817147 5.409716989292 3022.403208471521 2711 128 13124509.291949 3927881446.6082 2.1461480607517e+16
430	23791352 126480 536531 163817147 5.409716989292 3022.403208471521 2711 0.33333333333333 1111.6642849809 333682.5691944 150731618.81401
431	23917832 127989 523993 163817142 5.409716989292 3022.403208471521 2744 124.72513384264 287675.07128515 101821494.69204 12319635507958
432	24045821 127914 523993 163817142 5.409716989292 3022.403208471521 2744 0.38976604325824 897.98461489874 316029.29196255 119818797.37416
433	24173735 117577 460950 163806573 5.038853742904 3022.038853742904 3018 2077600 2077824 6270202400 1.3026984142054e+16
434	24291312 105505 460950 163806573 5.038853742904 3022.038853742904 3018 175 176 528175 92435025
435	24396817 1130 12876153 163337322 120.038865362904 2880.958865362904 24 1.8660446517827 1.8660446517827 44.785071642786 83.570943418727
436	24397947 1202 12876153 163337322 120.038865362904 2880.958865362904 24 0.0083305564811729 0.0083305564811729 0.19993335554815 0.0016655561108643
437	24399149 49750 527633 163814195 5.400191217838 3022.376903378496 1065 4.0996892324919 225547.00020625 17099610.445998 1705273818701.7
438	24448899 49852 527633 163814195 5.400191217838 3022.376903378496 1065 0.012811528851537 704.83437564453 53420.900514114 16652694.887772
439	24498751 51679 527629 163821365 5.417041942935 3022.58950729558 1110 4.5647216063929 7813761.7488129 640562119.29984 2.3937517561543e+15
440	24550430 51986 527629 163821365 5.417041942935 3022.58950729558 1110 0.020378221457111 651.66187848704 53748.97745219 16657492.846062
447	24602416 59123 516729 163830902 5.167450158909 3022.793547452548 1265 3.4731569147843 267299.72909804 19655519.073035 2123147503289.6
448	24661539 58975 516729 163830902 5.167450158909 3022.793547452548 1265 0.010853615358701 835.31165343137 61404.417918103 20733416.057729
449	24720514 60228 852914 163805123 5.50447013967 3015.958220026444 1289 4.0181293793334 9321271.6555185 701226312.34456 2.823789058431e+15
450	24780742 60128 852914 163805123 5.50447013967 3015.958220026444 1289 0.01793807758631 776.77263795987 58837.397751337 19649113.077518
457	24840870 60629 495313 163607825 5.240169928731 3014.851513455259 1294 4.6630459011555 232399.24899827 19978232.636538 2056557476772.5
458	24901499 60682 495313 163607825 5.240169928731 3014.851513455259 1294 0.014572018441111 726.24765311961 62413.73025897 20083363.837724
459	24962181 62337 518172 163828984 5.383085883107 3015.927919251719 1332 4.441909571425 8296349.7501682 763139329.78951 2.8635474353122e+15