file 48926826 1471644619                                        
version 2
run _18to20on-8-20160819-23:51:32-21990
attr configname _18to20on
attr datetime 20160819-23:51:32
attr experiment _18to20on
attr inifile omnetpp.ini
attr iterationvars $0=18
attr iterationvars2 "$0=18, $repetition=8"
attr measurement $0=18
attr network University
attr processid 21990
attr repetition 8
attr replication #8
attr resultdir results
attr runnumber 8
attr seedset 8

vector 354  University.whostVideoConf.udpApp[0]  sentPk:vector(packetBytes)  ETV
attr interpolationmode  none
attr source  sentPk
attr title  "packets sent, vector(packetBytes)"
vector 119  University.CCTV.udpApp[0]  sentPk:vector(packetBytes)  ETV
attr interpolationmode  none
attr source  sentPk
attr title  "packets sent, vector(packetBytes)"
vector 83  University.profLaptop.udpApp[0]  sentPk:vector(packetBytes)  ETV
attr interpolationmode  none
attr source  sentPk
attr title  "packets sent, vector(packetBytes)"
vector 82  University.profLaptop.udpApp[0]  rcvdPk:vector(packetBytes)  ETV
attr interpolationmode  none
attr source  rcvdPk
attr title  "packets received, vector(packetBytes)"
vector 84  University.profLaptop.udpApp[0]  rcvdPkLifetime:vector  ETV
attr interpolationmode  none
attr source  messageAge(rcvdPk)
attr title  "received packet lifetime, vector"
attr unit  s
vector 64  University.ccTVMonitoringHost.udpApp[0]  rcvdPk:vector(packetBytes)  ETV
attr interpolationmode  none
attr source  rcvdPk
attr title  "packets received, vector(packetBytes)"
vector 65  University.ccTVMonitoringHost.udpApp[0]  endToEndDelay:vector  ETV
attr interpolationmode  none
attr source  messageAge(rcvdPk)
attr title  "end-to-end delay, vector"
attr unit  s
vector 296  University.whttpStudents[13].tcpApp[0]  numActiveSessions:vector  ETV
attr interpolationmode  sample-hold
attr source  sum(connect)
attr title  "number of active sessions, vector"
vector 617  University.whostVideoConf.wlan[0].outputHook[0]  "thruput (bit/sec)"  ETV
vector 618  University.whostVideoConf.wlan[0].outputHook[0]  packet/sec  ETV
vector 639  University.accessPoint.wlan[0].inputHook[0]  "thruput (bit/sec)"  ETV
vector 640  University.accessPoint.wlan[0].inputHook[0]  packet/sec  ETV
vector 647  University.accessPoint.eth[0].outputHook[0]  "thruput (bit/sec)"  ETV
vector 648  University.accessPoint.eth[0].outputHook[0]  packet/sec  ETV
vector 395  University.remoteR.eth[0].inputHook[0]  "thruput (bit/sec)"  ETV
vector 396  University.remoteR.eth[0].inputHook[0]  packet/sec  ETV
vector 433  University.CCTV.eth[0].outputHook[0]  "thruput (bit/sec)"  ETV
vector 434  University.CCTV.eth[0].outputHook[0]  packet/sec  ETV
vector 399  University.remoteR.eth[1].inputHook[0]  "thruput (bit/sec)"  ETV
vector 400  University.remoteR.eth[1].inputHook[0]  packet/sec  ETV
vector 401  University.remoteR.ppp[0].outputHook[0]  "thruput (bit/sec)"  ETV
vector 402  University.remoteR.ppp[0].outputHook[0]  packet/sec  ETV
vector 425  University.profLaptop.ppp[0].outputHook[0]  "thruput (bit/sec)"  ETV
vector 426  University.profLaptop.ppp[0].outputHook[0]  packet/sec  ETV
vector 407  University.mainR.ppp[0].inputHook[0]  "thruput (bit/sec)"  ETV
vector 408  University.mainR.ppp[0].inputHook[0]  packet/sec  ETV
vector 411  University.mainR.ppp[1].inputHook[0]  "thruput (bit/sec)"  ETV
vector 412  University.mainR.ppp[1].inputHook[0]  packet/sec  ETV
vector 409  University.mainR.ppp[1].outputHook[0]  "thruput (bit/sec)"  ETV
vector 410  University.mainR.ppp[1].outputHook[0]  packet/sec  ETV
vector 427  University.profLaptop.ppp[0].inputHook[0]  "thruput (bit/sec)"  ETV
vector 428  University.profLaptop.ppp[0].inputHook[0]  packet/sec  ETV
vector 417  University.mainR.ppp[3].outputHook[0]  "thruput (bit/sec)"  ETV
vector 418  University.mainR.ppp[3].outputHook[0]  packet/sec  ETV
vector 423  University.ccTVMonitoringHost.ppp[0].inputHook[0]  "thruput (bit/sec)"  ETV
vector 424  University.ccTVMonitoringHost.ppp[0].inputHook[0]  packet/sec  ETV
vector 260  University.whttpStudents[10].tcpApp[0]  numActiveSessions:vector  ETV
attr interpolationmode  sample-hold
attr source  sum(connect)
attr title  "number of active sessions, vector"
vector 413  University.mainR.ppp[2].outputHook[0]  "thruput (bit/sec)"  ETV
vector 414  University.mainR.ppp[2].outputHook[0]  packet/sec  ETV
vector 176  University.whttpStudents[3].tcpApp[0]  numActiveSessions:vector  ETV
attr interpolationmode  sample-hold
attr source  sum(connect)
attr title  "number of active sessions, vector"
vector 393  University.remoteR.eth[0].outputHook[0]  "thruput (bit/sec)"  ETV
vector 394  University.remoteR.eth[0].outputHook[0]  packet/sec  ETV
vector 649  University.accessPoint.eth[0].inputHook[0]  "thruput (bit/sec)"  ETV
vector 650  University.accessPoint.eth[0].inputHook[0]  packet/sec  ETV
vector 637  University.accessPoint.wlan[0].outputHook[0]  "thruput (bit/sec)"  ETV
vector 638  University.accessPoint.wlan[0].outputHook[0]  packet/sec  ETV
vector 609  University.whttpStudents[17].wlan[0].inputHook[0]  "thruput (bit/sec)"  ETV
vector 610  University.whttpStudents[17].wlan[0].inputHook[0]  packet/sec  ETV
vector 499  University.whttpStudents[6].wlan[0].inputHook[0]  "thruput (bit/sec)"  ETV
vector 500  University.whttpStudents[6].wlan[0].inputHook[0]  packet/sec  ETV
vector 629  University.whostFTP.wlan[0].inputHook[0]  "thruput (bit/sec)"  ETV
vector 630  University.whostFTP.wlan[0].inputHook[0]  packet/sec  ETV
vector 509  University.whttpStudents[7].wlan[0].inputHook[0]  "thruput (bit/sec)"  ETV
vector 510  University.whttpStudents[7].wlan[0].inputHook[0]  packet/sec  ETV
vector 529  University.whttpStudents[9].wlan[0].inputHook[0]  "thruput (bit/sec)"  ETV
vector 530  University.whttpStudents[9].wlan[0].inputHook[0]  packet/sec  ETV
vector 589  University.whttpStudents[15].wlan[0].inputHook[0]  "thruput (bit/sec)"  ETV
vector 590  University.whttpStudents[15].wlan[0].inputHook[0]  packet/sec  ETV
vector 579  University.whttpStudents[14].wlan[0].inputHook[0]  "thruput (bit/sec)"  ETV
vector 580  University.whttpStudents[14].wlan[0].inputHook[0]  packet/sec  ETV
vector 479  University.whttpStudents[4].wlan[0].inputHook[0]  "thruput (bit/sec)"  ETV
vector 480  University.whttpStudents[4].wlan[0].inputHook[0]  packet/sec  ETV
vector 439  University.whttpStudents[0].wlan[0].inputHook[0]  "thruput (bit/sec)"  ETV
vector 440  University.whttpStudents[0].wlan[0].inputHook[0]  packet/sec  ETV
vector 569  University.whttpStudents[13].wlan[0].inputHook[0]  "thruput (bit/sec)"  ETV
vector 570  University.whttpStudents[13].wlan[0].inputHook[0]  packet/sec  ETV
vector 449  University.whttpStudents[1].wlan[0].inputHook[0]  "thruput (bit/sec)"  ETV
vector 450  University.whttpStudents[1].wlan[0].inputHook[0]  packet/sec  ETV
vector 489  University.whttpStudents[5].wlan[0].inputHook[0]  "thruput (bit/sec)"  ETV
vector 490  University.whttpStudents[5].wlan[0].inputHook[0]  packet/sec  ETV
vector 599  University.whttpStudents[16].wlan[0].inputHook[0]  "thruput (bit/sec)"  ETV
vector 600  University.whttpStudents[16].wlan[0].inputHook[0]  packet/sec  ETV
vector 559  University.whttpStudents[12].wlan[0].inputHook[0]  "thruput (bit/sec)"  ETV
vector 560  University.whttpStudents[12].wlan[0].inputHook[0]  packet/sec  ETV
vector 519  University.whttpStudents[8].wlan[0].inputHook[0]  "thruput (bit/sec)"  ETV
vector 520  University.whttpStudents[8].wlan[0].inputHook[0]  packet/sec  ETV
vector 459  University.whttpStudents[2].wlan[0].inputHook[0]  "thruput (bit/sec)"  ETV
vector 460  University.whttpStudents[2].wlan[0].inputHook[0]  packet/sec  ETV
vector 549  University.whttpStudents[11].wlan[0].inputHook[0]  "thruput (bit/sec)"  ETV
vector 550  University.whttpStudents[11].wlan[0].inputHook[0]  packet/sec  ETV
vector 539  University.whttpStudents[10].wlan[0].inputHook[0]  "thruput (bit/sec)"  ETV
vector 540  University.whttpStudents[10].wlan[0].inputHook[0]  packet/sec  ETV
vector 619  University.whostVideoConf.wlan[0].inputHook[0]  "thruput (bit/sec)"  ETV
vector 620  University.whostVideoConf.wlan[0].inputHook[0]  packet/sec  ETV
vector 469  University.whttpStudents[3].wlan[0].inputHook[0]  "thruput (bit/sec)"  ETV
vector 470  University.whttpStudents[3].wlan[0].inputHook[0]  packet/sec  ETV
vector 431  University.Server.ppp[0].inputHook[0]  "thruput (bit/sec)"  ETV
vector 432  University.Server.ppp[0].inputHook[0]  packet/sec  ETV
vector 429  University.Server.ppp[0].outputHook[0]  "thruput (bit/sec)"  ETV
vector 430  University.Server.ppp[0].outputHook[0]  packet/sec  ETV
vector 415  University.mainR.ppp[2].inputHook[0]  "thruput (bit/sec)"  ETV
vector 416  University.mainR.ppp[2].inputHook[0]  packet/sec  ETV
vector 174  University.whttpStudents[3].tcpApp[0]  sentPk:vector(packetBytes)  ETV
attr interpolationmode  none
attr source  sentPk
attr title  "packets sent, vector(packetBytes)"
vector 101  University.Server.tcpApp[0]  rcvdPk:vector(packetBytes)  ETV
attr interpolationmode  none
attr source  rcvdPk
attr title  "packets received, vector(packetBytes)"
vector 103  University.Server.tcpApp[0]  endToEndDelay:vector  ETV
attr interpolationmode  none
attr source  messageAge(rcvdPk)
attr title  "end-to-end delay, vector"
attr unit  s
vector 102  University.Server.tcpApp[0]  sentPk:vector(packetBytes)  ETV
attr interpolationmode  none
attr source  sentPk
attr title  "packets sent, vector(packetBytes)"
vector 152  University.whttpStudents[1].tcpApp[0]  numActiveSessions:vector  ETV
attr interpolationmode  sample-hold
attr source  sum(connect)
attr title  "number of active sessions, vector"
vector 236  University.whttpStudents[8].tcpApp[0]  numActiveSessions:vector  ETV
attr interpolationmode  sample-hold
attr source  sum(connect)
attr title  "number of active sessions, vector"
vector 150  University.whttpStudents[1].tcpApp[0]  sentPk:vector(packetBytes)  ETV
attr interpolationmode  none
attr source  sentPk
attr title  "packets sent, vector(packetBytes)"
vector 567  University.whttpStudents[13].wlan[0].outputHook[0]  "thruput (bit/sec)"  ETV
vector 568  University.whttpStudents[13].wlan[0].outputHook[0]  packet/sec  ETV
vector 164  University.whttpStudents[2].tcpApp[0]  numActiveSessions:vector  ETV
attr interpolationmode  sample-hold
attr source  sum(connect)
attr title  "number of active sessions, vector"
vector 162  University.whttpStudents[2].tcpApp[0]  sentPk:vector(packetBytes)  ETV
attr interpolationmode  none
attr source  sentPk
attr title  "packets sent, vector(packetBytes)"
vector 467  University.whttpStudents[3].wlan[0].outputHook[0]  "thruput (bit/sec)"  ETV
vector 468  University.whttpStudents[3].wlan[0].outputHook[0]  packet/sec  ETV
vector 405  University.mainR.ppp[0].outputHook[0]  "thruput (bit/sec)"  ETV
vector 406  University.mainR.ppp[0].outputHook[0]  packet/sec  ETV
vector 403  University.remoteR.ppp[0].inputHook[0]  "thruput (bit/sec)"  ETV
vector 404  University.remoteR.ppp[0].inputHook[0]  packet/sec  ETV
vector 537  University.whttpStudents[10].wlan[0].outputHook[0]  "thruput (bit/sec)"  ETV
vector 538  University.whttpStudents[10].wlan[0].outputHook[0]  packet/sec  ETV
vector 447  University.whttpStudents[1].wlan[0].outputHook[0]  "thruput (bit/sec)"  ETV
vector 448  University.whttpStudents[1].wlan[0].outputHook[0]  packet/sec  ETV
vector 149  University.whttpStudents[1].tcpApp[0]  rcvdPk:vector(packetBytes)  ETV
attr interpolationmode  none
attr source  rcvdPk
attr title  "packets received, vector(packetBytes)"
vector 151  University.whttpStudents[1].tcpApp[0]  endToEndDelay:vector  ETV
attr interpolationmode  none
attr source  messageAge(rcvdPk)
attr title  "end-to-end delay, vector"
attr unit  s
vector 188  University.whttpStudents[4].tcpApp[0]  numActiveSessions:vector  ETV
attr interpolationmode  sample-hold
attr source  sum(connect)
attr title  "number of active sessions, vector"
vector 186  University.whttpStudents[4].tcpApp[0]  sentPk:vector(packetBytes)  ETV
attr interpolationmode  none
attr source  sentPk
attr title  "packets sent, vector(packetBytes)"
vector 248  University.whttpStudents[9].tcpApp[0]  numActiveSessions:vector  ETV
attr interpolationmode  sample-hold
attr source  sum(connect)
attr title  "number of active sessions, vector"
vector 185  University.whttpStudents[4].tcpApp[0]  rcvdPk:vector(packetBytes)  ETV
attr interpolationmode  none
attr source  rcvdPk
attr title  "packets received, vector(packetBytes)"
vector 187  University.whttpStudents[4].tcpApp[0]  endToEndDelay:vector  ETV
attr interpolationmode  none
attr source  messageAge(rcvdPk)
attr title  "end-to-end delay, vector"
attr unit  s
vector 517  University.whttpStudents[8].wlan[0].outputHook[0]  "thruput (bit/sec)"  ETV
vector 518  University.whttpStudents[8].wlan[0].outputHook[0]  packet/sec  ETV
vector 140  University.whttpStudents[0].tcpApp[0]  numActiveSessions:vector  ETV
attr interpolationmode  sample-hold
attr source  sum(connect)
attr title  "number of active sessions, vector"
vector 320  University.whttpStudents[15].tcpApp[0]  numActiveSessions:vector  ETV
attr interpolationmode  sample-hold
attr source  sum(connect)
attr title  "number of active sessions, vector"
vector 487  University.whttpStudents[5].wlan[0].outputHook[0]  "thruput (bit/sec)"  ETV
vector 488  University.whttpStudents[5].wlan[0].outputHook[0]  packet/sec  ETV
vector 138  University.whttpStudents[0].tcpApp[0]  sentPk:vector(packetBytes)  ETV
attr interpolationmode  none
attr source  sentPk
attr title  "packets sent, vector(packetBytes)"
vector 457  University.whttpStudents[2].wlan[0].outputHook[0]  "thruput (bit/sec)"  ETV
vector 458  University.whttpStudents[2].wlan[0].outputHook[0]  packet/sec  ETV
vector 437  University.whttpStudents[0].wlan[0].outputHook[0]  "thruput (bit/sec)"  ETV
vector 438  University.whttpStudents[0].wlan[0].outputHook[0]  packet/sec  ETV
vector 527  University.whttpStudents[9].wlan[0].outputHook[0]  "thruput (bit/sec)"  ETV
vector 528  University.whttpStudents[9].wlan[0].outputHook[0]  packet/sec  ETV
vector 477  University.whttpStudents[4].wlan[0].outputHook[0]  "thruput (bit/sec)"  ETV
vector 478  University.whttpStudents[4].wlan[0].outputHook[0]  packet/sec  ETV
vector 547  University.whttpStudents[11].wlan[0].outputHook[0]  "thruput (bit/sec)"  ETV
vector 548  University.whttpStudents[11].wlan[0].outputHook[0]  packet/sec  ETV
vector 587  University.whttpStudents[15].wlan[0].outputHook[0]  "thruput (bit/sec)"  ETV
vector 588  University.whttpStudents[15].wlan[0].outputHook[0]  packet/sec  ETV
vector 344  University.whttpStudents[17].tcpApp[0]  numActiveSessions:vector  ETV
attr interpolationmode  sample-hold
attr source  sum(connect)
attr title  "number of active sessions, vector"
vector 161  University.whttpStudents[2].tcpApp[0]  rcvdPk:vector(packetBytes)  ETV
attr interpolationmode  none
attr source  rcvdPk
attr title  "packets received, vector(packetBytes)"
vector 163  University.whttpStudents[2].tcpApp[0]  endToEndDelay:vector  ETV
attr interpolationmode  none
attr source  messageAge(rcvdPk)
attr title  "end-to-end delay, vector"
attr unit  s
vector 607  University.whttpStudents[17].wlan[0].outputHook[0]  "thruput (bit/sec)"  ETV
vector 608  University.whttpStudents[17].wlan[0].outputHook[0]  packet/sec  ETV
vector 627  University.whostFTP.wlan[0].outputHook[0]  "thruput (bit/sec)"  ETV
vector 628  University.whostFTP.wlan[0].outputHook[0]  packet/sec  ETV
vector 212  University.whttpStudents[6].tcpApp[0]  numActiveSessions:vector  ETV
attr interpolationmode  sample-hold
attr source  sum(connect)
attr title  "number of active sessions, vector"
vector 577  University.whttpStudents[14].wlan[0].outputHook[0]  "thruput (bit/sec)"  ETV
vector 578  University.whttpStudents[14].wlan[0].outputHook[0]  packet/sec  ETV
vector 173  University.whttpStudents[3].tcpApp[0]  rcvdPk:vector(packetBytes)  ETV
attr interpolationmode  none
attr source  rcvdPk
attr title  "packets received, vector(packetBytes)"
vector 175  University.whttpStudents[3].tcpApp[0]  endToEndDelay:vector  ETV
attr interpolationmode  none
attr source  messageAge(rcvdPk)
attr title  "end-to-end delay, vector"
attr unit  s
vector 137  University.whttpStudents[0].tcpApp[0]  rcvdPk:vector(packetBytes)  ETV
attr interpolationmode  none
attr source  rcvdPk
attr title  "packets received, vector(packetBytes)"
vector 139  University.whttpStudents[0].tcpApp[0]  endToEndDelay:vector  ETV
attr interpolationmode  none
attr source  messageAge(rcvdPk)
attr title  "end-to-end delay, vector"
attr unit  s
vector 497  University.whttpStudents[6].wlan[0].outputHook[0]  "thruput (bit/sec)"  ETV
vector 498  University.whttpStudents[6].wlan[0].outputHook[0]  packet/sec  ETV
vector 224  University.whttpStudents[7].tcpApp[0]  numActiveSessions:vector  ETV
attr interpolationmode  sample-hold
attr source  sum(connect)
attr title  "number of active sessions, vector"
vector 507  University.whttpStudents[7].wlan[0].outputHook[0]  "thruput (bit/sec)"  ETV
vector 508  University.whttpStudents[7].wlan[0].outputHook[0]  packet/sec  ETV
vector 332  University.whttpStudents[16].tcpApp[0]  numActiveSessions:vector  ETV
attr interpolationmode  sample-hold
attr source  sum(connect)
attr title  "number of active sessions, vector"
vector 597  University.whttpStudents[16].wlan[0].outputHook[0]  "thruput (bit/sec)"  ETV
vector 598  University.whttpStudents[16].wlan[0].outputHook[0]  packet/sec  ETV
vector 284  University.whttpStudents[12].tcpApp[0]  numActiveSessions:vector  ETV
attr interpolationmode  sample-hold
attr source  sum(connect)
attr title  "number of active sessions, vector"
vector 557  University.whttpStudents[12].wlan[0].outputHook[0]  "thruput (bit/sec)"  ETV
vector 558  University.whttpStudents[12].wlan[0].outputHook[0]  packet/sec  ETV
vector 372  University.whostFTP.tcpApp[0]  numActiveSessions:vector  ETV
attr interpolationmode  sample-hold
attr source  sum(connect)
attr title  "number of active sessions, vector"
vector 308  University.whttpStudents[14].tcpApp[0]  numActiveSessions:vector  ETV
attr interpolationmode  sample-hold
attr source  sum(connect)
attr title  "number of active sessions, vector"
vector 272  University.whttpStudents[11].tcpApp[0]  numActiveSessions:vector  ETV
attr interpolationmode  sample-hold
attr source  sum(connect)
attr title  "number of active sessions, vector"
vector 200  University.whttpStudents[5].tcpApp[0]  numActiveSessions:vector  ETV
attr interpolationmode  sample-hold
attr source  sum(connect)
attr title  "number of active sessions, vector"
vector 397  University.remoteR.eth[1].outputHook[0]  "thruput (bit/sec)"  ETV
vector 398  University.remoteR.eth[1].outputHook[0]  packet/sec  ETV
vector 435  University.CCTV.eth[0].inputHook[0]  "thruput (bit/sec)"  ETV
vector 436  University.CCTV.eth[0].inputHook[0]  packet/sec  ETV
64	18738 2745294 82428 199587652 5.025862519928 3046.425862519928 76036 10240 10240 778608640 7972952473600
65	2764032 3429574 82428 199587652 5.025862519928 3046.425862519928 76036 0.017080129996 0.018068129995 1299.008103982 22.192467783326
82	6193606 2667920 82351 199587968 5.017494919806 3046.457494919806 76037 1400 1400 106451800 149032520000
83	8861526 2593303 82216 199587913 5.00957758286 3046.44957758286 76037 1400 1400 106451800 149032520000
84	11454829 3426917 82351 199587968 5.017494919806 3046.457494919806 76037 0.016345637686 0.11073257114 1264.8365328241 21.166933157227
101	14881746 23255 115433 199472539 7.867606874117 3045.255666526651 705 1 1 705 705
102	14905001 26904 115433 199472539 7.867606874117 3045.255666526651 705 363 5731353 591255603 9.803921368984e+14
103	14931905 32299 115433 199472539 7.867606874117 3045.255666526651 705 0.072818358239 0.079095489887 51.7268640414 3.7966024660528
119	14964204 2821414 82143 199587840 5.008782389932 3046.448782389932 76037 10240 10240 778618880 7973057331200
137	17785618 5281 1848340 197980120 23.139774947343 3015.286301058207 138 3444 5079252 130469010 2.3273899972732e+14
138	17790899 4550 552806 197287983 11.436853792946 3005.074215945063 138 1 1 138 138
139	17795449 6388 1848340 197980120 23.139774947343 3015.286301058207 138 0.169936137196 32.625397953622 1100.1995454142 17342.752651007
140	17801837 9118 549428 197980120 11.352672824347 3015.286301058207 276 0 1 138 138
149	17810955 5396 450336 199445569 9.33618410706 3043.625992887481 141 12501 4156031 117283308 1.8897808416514e+14
150	17816351 4653 146456 199369041 8.339961044224 3042.910851229386 141 1 1 141 141
151	17821004 6516 450336 199445569 9.33618410706 3043.625992887481 141 0.338587648715 33.007648598199 954.75231095168 14958.116998105
152	17827520 9300 130002 199445569 8.231827951726 3043.625992887481 282 0 1 141 141
161	17836820 5521 1616232 198869884 17.723871307473 3032.78871666489 145 4198 3982803 103883353 1.4936483228434e+14
162	17842341 4815 224667 198981446 8.596814053569 3037.319680561771 146 1 1 146 146
163	17847156 6681 1616232 198869884 17.723871307473 3032.78871666489 145 0.25203340859 46.724344800015 950.21118346679 16344.464740834
164	17853837 9595 169646 198980099 8.444126150676 3037.23710263009 291 0 1 146 146
173	17863432 5145 1846118 195704967 23.081957960862 2980.348842909471 135 7219 5731353 120827396 2.3293062902158e+14
174	17868577 4456 114051 195678629 7.794752515878 2979.913517406501 135 1 1 135 135
175	17873033 6233 1846118 195704967 23.081957960862 2980.348842909471 135 0.254303330131 27.4072643798 1036.1088879843 16840.941982384
176	17879266 8907 112383 195704967 7.710589575451 2980.348842909471 270 0 1 135 135
185	17888173 5515 530495 199578946 10.498319762442 3045.985343541698 145 363 3262155 117869487 1.7552757224362e+14
186	17893688 4776 470401 199470836 9.846758939929 3045.182821150526 145 1 1 145 145
187	17898464 6696 530495 199578946 10.498319762442 3045.985343541698 145 0.083799654013 27.995061784931 1080.3722254357 18319.514531462
188	17905160 9550 467974 199578946 9.762577975654 3045.985343541698 290 0 1 145 145
200	17914710 1111 6221207 197281191 88.440175649957 3004.76515071251 33 1 33 561 12529
212	17915821 1178 1725620 197239390 21.462823345646 3002.675501927224 35 1 35 630 14910
224	17916999 1181 2075239 196105690 25.578166157945 2982.201776523407 35 1 35 630 14910
236	17918180 1142 142443 195285276 8.329286692189 2976.407282516827 34 1 34 595 13685
248	17919322 1142 471100 196304527 9.87029392209 2986.479373999824 34 1 34 595 13685
260	17920464 1143 94553 192813163 6.09189595231 2947.150079154344 34 1 34 595 13685
272	17921607 1114 5940497 197118972 85.362092313333 3000.821544495275 33 1 33 561 12529
284	17922721 1079 3999460 195266493 61.004334909983 2975.52242133078 32 1 32 528 11440
296	17923800 1144 85960 198439183 5.363373336896 3019.072068742855 34 1 34 595 13685
308	17924944 1115 5324999 196229247 76.898926035517 2984.539301293388 33 1 33 561 12529
320	17926059 1149 550159 198981167 11.356959123379 3037.317047051064 34 1 34 595 13685
332	17927208 1111 2901486 194814223 33.971394643836 2970.533812542503 33 1 33 561 12529
344	17928319 1247 1511619 198910198 16.793154550015 3036.282321791732 37 1 37 703 17575
354	17929566 2669340 81956 199587653 5.00114928212 3046.44114928212 76037 1400 1400 106451800 149032520000
372	20598906 837 5287450 196989846 75 3000 40 1 40 820 22140
393	20599743 118549 112485 199476795 6.091967802616 3044.423669069741 2529 39.180159107788 11112892.739663 4687310746.9348 2.1649648449081e+16
394	20718292 118535 112485 199476795 6.091967802616 3044.423669069741 2529 0.12243799721184 926.07439497194 393611.04606308 151700708.87514
395	20836827 124638 93534 199479180 5.00153825314 3044.48153825314 3024 281699.78287939 584579.42327466 996559827.15295 3.3911366787177e+14
396	20961465 118067 93534 199479180 5.00153825314 3044.48153825314 3024 25 937.03026679219 490309.86327399 182758988.87256
397	21079532 1133 16892323 197124253 120.048788199932 2880.968788199932 24 1.8660446517827 1.8660446517827 44.785071642786 83.570943418727
398	21080665 1205 16892323 197124253 120.048788199932 2880.968788199932 24 0.0083305564811729 0.0083305564811729 0.19993335554815 0.0016655561108643
399	21081870 118938 93630 199580242 5.008904519932 3045.009027559931 3041 2077600 2089367.2027084 6317998943.0587 1.3126310775749e+16
400	21200808 106782 93630 199580242 5.008904519932 3045.009027559931 3041 175 176 532200.97834717 93139743.378592
401	21307590 118938 93632 199580244 5.008904519932 3045.009027559931 3041 2363200 2654528 7320357770.5856 1.763246689183e+16
402	21426528 106799 93632 199580244 5.008904519932 3045.009027559931 3041 200 1110 1025854.9461037 450973387.66176
403	21533327 118505 301611 199476793 7.794676526971 3044.423669069741 2528 39.180159107788 11112892.739663 4687566970.8869 2.1660545983279e+16
404	21651832 118497 301611 199476793 7.794676526971 3044.423669069741 2528 0.12243799721184 926.07439497194 393512.44708545 151723148.32519
405	21770329 118325 297939 199479464 7.784639860305 3044.496966681422 2524 39.180171900165 12033529.513747 5166551199.438 2.8977909687079e+16
406	21888654 118295 297939 199479464 7.784639860305 3044.496966681422 2524 0.12243803718802 1005.2799448418 433467.01193829 202729384.22412
407	22006949 119757 93698 199585243 5.012494919806 3045.299909186598 3041 2333416.6289754 2652800 7320318998.0991 1.7632326617506e+16
408	22126706 108074 93698 199585243 5.012494919806 3045.299909186598 3041 200 1105 1025763.1334785 451165069.2192
409	22234780 112840 93736 199580363 5.01457758286 3045.01457758286 3041 262528 331072 902568800 2.6791113155072e+14
410	22347620 100676 93736 199580363 5.01457758286 3045.01457758286 3041 47 53 152050 7602720
411	22448296 112840 93733 199580360 5.01457758286 3045.01457758286 3041 285600 285600 868509600 2.4804634176e+14
412	22561136 100676 93733 199580360 5.01457758286 3045.01457758286 3041 25 25 76025 1900625
413	22661812 127640 111994 199586776 5.375034895996 3045.354884337939 2728 127.18290916058 291869.46598188 130724300.60559 15911595080100
414	22789452 127572 111994 199586776 5.375034895996 3045.354884337939 2728 0.39744659112682 912.08946014541 406301.81304182 154722753.85875
415	22917024 126927 113485 199479462 5.437387647463 3044.496966681422 2709 128 12409999.629658 5233107832.7484 2.9142344926869e+16
416	23043951 126925 113485 199479462 5.437387647463 3044.496966681422 2709 0.33333333333333 1040.9571663668 443043.31524271 205112867.26773
417	23170876 119434 93850 199585245 5.022923186596 3045.299909186598 3041 2019993.2560567 2088801.0490016 6317965220.1157 1.3126197708688e+16
418	23290310 107682 93850 199585245 5.022923186596 3045.299909186598 3041 170.21024188491 175.93270703689 532173.63812803 93130336.384808
423	23397992 119434 93855 199585250 5.022923186596 3045.299909186598 3041 2019993.2560567 2088801.0490016 6317965220.1157 1.3126197708688e+16
424	23517426 107682 93855 199585250 5.022923186596 3045.299909186598 3041 170.21024188491 175.93270703689 532173.63812803 93130336.384808
425	23625108 112840 93679 199580286 5.00957758286 3045.00957758286 3041 285600 285600 868509600 2.4804634176e+14
426	23737948 100676 93679 199580286 5.00957758286 3045.00957758286 3041 25 25 76025 1900625
427	23838624 112840 93813 199580456 5.01957758286 3045.01957758286 3041 262528 331072 902568800 2.6791113155072e+14
428	23951464 100676 93813 199580456 5.01957758286 3045.01957758286 3041 47 53 152050 7602720
429	24052140 126549 113480 199479453 5.437047947515 3044.496510821474 2709 128 17354269.143534 5438903233.2798 3.2049762559947e+16
430	24178689 126497 113480 199479453 5.437047947515 3044.496510821474 2709 0.33333333333333 1448.255272817 460204.14285613 225448990.59842
431	24305186 127344 113476 199587933 5.437047947515 3045.416898029458 2728 127.18287680961 291869.46598188 130724302.91646 15911595348081
432	24432530 127260 113476 199587933 5.437047947515 3045.416898029458 2728 0.39744649003002 912.08946014541 406301.82013352 154722756.40534
433	24559790 118922 93606 199580209 5.008782389932 3045.008782389932 3041 2077600 2077824 6317987200 1.3126261842534e+16
434	24678712 106758 93606 199580209 5.008782389932 3045.008782389932 3041 175 176 532200 93139400
435	24785470 1133 16892330 197124260 120.048794009932 2880.968794009932 24 1.8660446517827 1.8660446517827 44.785071642786 83.570943418727
436	24786603 1205 16892330 197124260 120.048794009932 2880.968794009932 24 0.0083305564811729 0.0083305564811729 0.19993335554815 0.0016655561108643
437	24787808 49865 717439 197969667 11.352672824347 3014.158544791004 1063 9.2986428799157 265500.15482021 25237328.299419 2256556806782.6
438	24837673 49911 717439 197969667 11.352672824347 3014.158544791004 1063 0.029058258999737 829.68798381317 78848.20265418 22025697.245538
439	24887584 52271 112658 197990696 6.093056018566 3014.320238262528 1115 4.0430328243983 9727512.0106154 946665032.9105 3.4535084605719e+15
440	24939855 52385 112658 197990696 6.093056018566 3014.320238262528 1115 0.01804925368035 810.75847776007 79275.340866445 24151414.173343
447	24992240 44657 413855 199367595 8.231827951726 3039.995088975451 952 7.2272631385404 266472.87797401 22531579.011403 2102548754726.5
448	25036897 44705 413855 199367595 8.231827951726 3039.995088975451 952 0.022585197307939 832.7277436688 70394.668557828 20522940.973763
449	25081602 47049 112670 199369037 6.09305602025 3040.077666895518 1003 5.3883597483147 8890044.1233953 827998341.392 3.0223426380636e+15
450	25128651 47173 112670 199369037 6.09305602025 3040.077666895518 1003 0.024055177447833 740.83701028294 69378.180482463 21136365.420951
457	25175824 41677 557148 199478368 8.444126150676 3044.424077233181 893 6.4875167180401 226591.8654522 19609723.897233 1667673968960.3
458	25217501 41927 557148 199478368 8.444126150676 3044.424077233181 893 0.020273489743875 708.09957953811 61264.16933501 16276437.479955
459	25259428 44359 112700 199482955 6.093056026057 3044.508379511528 948 4.441410815499 7367392.421675 711612840.18827 2.3467460141579e+15