file 47915567 1471644116                                        
version 2
run _18to20on-5-20160819-23:37:52-21787
attr configname _18to20on
attr datetime 20160819-23:37:52
attr experiment _18to20on
attr inifile omnetpp.ini
attr iterationvars $0=18
attr iterationvars2 "$0=18, $repetition=5"
attr measurement $0=18
attr network University
attr processid 21787
attr repetition 5
attr replication #5
attr resultdir results
attr runnumber 5
attr seedset 5

vector 354  University.whostVideoConf.udpApp[0]  sentPk:vector(packetBytes)  ETV
attr interpolationmode  none
attr source  sentPk
attr title  "packets sent, vector(packetBytes)"
vector 119  University.CCTV.udpApp[0]  sentPk:vector(packetBytes)  ETV
attr interpolationmode  none
attr source  sentPk
attr title  "packets sent, vector(packetBytes)"
vector 82  University.profLaptop.udpApp[0]  rcvdPk:vector(packetBytes)  ETV
attr interpolationmode  none
attr source  rcvdPk
attr title  "packets received, vector(packetBytes)"
vector 84  University.profLaptop.udpApp[0]  rcvdPkLifetime:vector  ETV
attr interpolationmode  none
attr source  messageAge(rcvdPk)
attr title  "received packet lifetime, vector"
attr unit  s
vector 64  University.ccTVMonitoringHost.udpApp[0]  rcvdPk:vector(packetBytes)  ETV
attr interpolationmode  none
attr source  rcvdPk
attr title  "packets received, vector(packetBytes)"
vector 65  University.ccTVMonitoringHost.udpApp[0]  endToEndDelay:vector  ETV
attr interpolationmode  none
attr source  messageAge(rcvdPk)
attr title  "end-to-end delay, vector"
attr unit  s
vector 83  University.profLaptop.udpApp[0]  sentPk:vector(packetBytes)  ETV
attr interpolationmode  none
attr source  sentPk
attr title  "packets sent, vector(packetBytes)"
vector 308  University.whttpStudents[14].tcpApp[0]  numActiveSessions:vector  ETV
attr interpolationmode  sample-hold
attr source  sum(connect)
attr title  "number of active sessions, vector"
vector 617  University.whostVideoConf.wlan[0].outputHook[0]  "thruput (bit/sec)"  ETV
vector 618  University.whostVideoConf.wlan[0].outputHook[0]  packet/sec  ETV
vector 639  University.accessPoint.wlan[0].inputHook[0]  "thruput (bit/sec)"  ETV
vector 640  University.accessPoint.wlan[0].inputHook[0]  packet/sec  ETV
vector 647  University.accessPoint.eth[0].outputHook[0]  "thruput (bit/sec)"  ETV
vector 648  University.accessPoint.eth[0].outputHook[0]  packet/sec  ETV
vector 395  University.remoteR.eth[0].inputHook[0]  "thruput (bit/sec)"  ETV
vector 396  University.remoteR.eth[0].inputHook[0]  packet/sec  ETV
vector 427  University.profLaptop.ppp[0].inputHook[0]  "thruput (bit/sec)"  ETV
vector 428  University.profLaptop.ppp[0].inputHook[0]  packet/sec  ETV
vector 433  University.CCTV.eth[0].outputHook[0]  "thruput (bit/sec)"  ETV
vector 434  University.CCTV.eth[0].outputHook[0]  packet/sec  ETV
vector 399  University.remoteR.eth[1].inputHook[0]  "thruput (bit/sec)"  ETV
vector 400  University.remoteR.eth[1].inputHook[0]  packet/sec  ETV
vector 401  University.remoteR.ppp[0].outputHook[0]  "thruput (bit/sec)"  ETV
vector 402  University.remoteR.ppp[0].outputHook[0]  packet/sec  ETV
vector 407  University.mainR.ppp[0].inputHook[0]  "thruput (bit/sec)"  ETV
vector 408  University.mainR.ppp[0].inputHook[0]  packet/sec  ETV
vector 417  University.mainR.ppp[3].outputHook[0]  "thruput (bit/sec)"  ETV
vector 418  University.mainR.ppp[3].outputHook[0]  packet/sec  ETV
vector 423  University.ccTVMonitoringHost.ppp[0].inputHook[0]  "thruput (bit/sec)"  ETV
vector 424  University.ccTVMonitoringHost.ppp[0].inputHook[0]  packet/sec  ETV
vector 425  University.profLaptop.ppp[0].outputHook[0]  "thruput (bit/sec)"  ETV
vector 426  University.profLaptop.ppp[0].outputHook[0]  packet/sec  ETV
vector 413  University.mainR.ppp[2].outputHook[0]  "thruput (bit/sec)"  ETV
vector 414  University.mainR.ppp[2].outputHook[0]  packet/sec  ETV
vector 411  University.mainR.ppp[1].inputHook[0]  "thruput (bit/sec)"  ETV
vector 412  University.mainR.ppp[1].inputHook[0]  packet/sec  ETV
vector 409  University.mainR.ppp[1].outputHook[0]  "thruput (bit/sec)"  ETV
vector 410  University.mainR.ppp[1].outputHook[0]  packet/sec  ETV
vector 431  University.Server.ppp[0].inputHook[0]  "thruput (bit/sec)"  ETV
vector 432  University.Server.ppp[0].inputHook[0]  packet/sec  ETV
vector 429  University.Server.ppp[0].outputHook[0]  "thruput (bit/sec)"  ETV
vector 430  University.Server.ppp[0].outputHook[0]  packet/sec  ETV
vector 415  University.mainR.ppp[2].inputHook[0]  "thruput (bit/sec)"  ETV
vector 416  University.mainR.ppp[2].inputHook[0]  packet/sec  ETV
vector 393  University.remoteR.eth[0].outputHook[0]  "thruput (bit/sec)"  ETV
vector 394  University.remoteR.eth[0].outputHook[0]  packet/sec  ETV
vector 649  University.accessPoint.eth[0].inputHook[0]  "thruput (bit/sec)"  ETV
vector 650  University.accessPoint.eth[0].inputHook[0]  packet/sec  ETV
vector 637  University.accessPoint.wlan[0].outputHook[0]  "thruput (bit/sec)"  ETV
vector 638  University.accessPoint.wlan[0].outputHook[0]  packet/sec  ETV
vector 479  University.whttpStudents[4].wlan[0].inputHook[0]  "thruput (bit/sec)"  ETV
vector 480  University.whttpStudents[4].wlan[0].inputHook[0]  packet/sec  ETV
vector 477  University.whttpStudents[4].wlan[0].outputHook[0]  "thruput (bit/sec)"  ETV
vector 478  University.whttpStudents[4].wlan[0].outputHook[0]  packet/sec  ETV
vector 405  University.mainR.ppp[0].outputHook[0]  "thruput (bit/sec)"  ETV
vector 406  University.mainR.ppp[0].outputHook[0]  packet/sec  ETV
vector 403  University.remoteR.ppp[0].inputHook[0]  "thruput (bit/sec)"  ETV
vector 404  University.remoteR.ppp[0].inputHook[0]  packet/sec  ETV
vector 212  University.whttpStudents[6].tcpApp[0]  numActiveSessions:vector  ETV
attr interpolationmode  sample-hold
attr source  sum(connect)
attr title  "number of active sessions, vector"
vector 549  University.whttpStudents[11].wlan[0].inputHook[0]  "thruput (bit/sec)"  ETV
vector 550  University.whttpStudents[11].wlan[0].inputHook[0]  packet/sec  ETV
vector 469  University.whttpStudents[3].wlan[0].inputHook[0]  "thruput (bit/sec)"  ETV
vector 470  University.whttpStudents[3].wlan[0].inputHook[0]  packet/sec  ETV
vector 459  University.whttpStudents[2].wlan[0].inputHook[0]  "thruput (bit/sec)"  ETV
vector 460  University.whttpStudents[2].wlan[0].inputHook[0]  packet/sec  ETV
vector 559  University.whttpStudents[12].wlan[0].inputHook[0]  "thruput (bit/sec)"  ETV
vector 560  University.whttpStudents[12].wlan[0].inputHook[0]  packet/sec  ETV
vector 629  University.whostFTP.wlan[0].inputHook[0]  "thruput (bit/sec)"  ETV
vector 630  University.whostFTP.wlan[0].inputHook[0]  packet/sec  ETV
vector 529  University.whttpStudents[9].wlan[0].inputHook[0]  "thruput (bit/sec)"  ETV
vector 530  University.whttpStudents[9].wlan[0].inputHook[0]  packet/sec  ETV
vector 439  University.whttpStudents[0].wlan[0].inputHook[0]  "thruput (bit/sec)"  ETV
vector 440  University.whttpStudents[0].wlan[0].inputHook[0]  packet/sec  ETV
vector 579  University.whttpStudents[14].wlan[0].inputHook[0]  "thruput (bit/sec)"  ETV
vector 580  University.whttpStudents[14].wlan[0].inputHook[0]  packet/sec  ETV
vector 509  University.whttpStudents[7].wlan[0].inputHook[0]  "thruput (bit/sec)"  ETV
vector 510  University.whttpStudents[7].wlan[0].inputHook[0]  packet/sec  ETV
vector 539  University.whttpStudents[10].wlan[0].inputHook[0]  "thruput (bit/sec)"  ETV
vector 540  University.whttpStudents[10].wlan[0].inputHook[0]  packet/sec  ETV
vector 609  University.whttpStudents[17].wlan[0].inputHook[0]  "thruput (bit/sec)"  ETV
vector 610  University.whttpStudents[17].wlan[0].inputHook[0]  packet/sec  ETV
vector 449  University.whttpStudents[1].wlan[0].inputHook[0]  "thruput (bit/sec)"  ETV
vector 450  University.whttpStudents[1].wlan[0].inputHook[0]  packet/sec  ETV
vector 589  University.whttpStudents[15].wlan[0].inputHook[0]  "thruput (bit/sec)"  ETV
vector 590  University.whttpStudents[15].wlan[0].inputHook[0]  packet/sec  ETV
vector 489  University.whttpStudents[5].wlan[0].inputHook[0]  "thruput (bit/sec)"  ETV
vector 490  University.whttpStudents[5].wlan[0].inputHook[0]  packet/sec  ETV
vector 569  University.whttpStudents[13].wlan[0].inputHook[0]  "thruput (bit/sec)"  ETV
vector 570  University.whttpStudents[13].wlan[0].inputHook[0]  packet/sec  ETV
vector 519  University.whttpStudents[8].wlan[0].inputHook[0]  "thruput (bit/sec)"  ETV
vector 520  University.whttpStudents[8].wlan[0].inputHook[0]  packet/sec  ETV
vector 599  University.whttpStudents[16].wlan[0].inputHook[0]  "thruput (bit/sec)"  ETV
vector 600  University.whttpStudents[16].wlan[0].inputHook[0]  packet/sec  ETV
vector 619  University.whostVideoConf.wlan[0].inputHook[0]  "thruput (bit/sec)"  ETV
vector 620  University.whostVideoConf.wlan[0].inputHook[0]  packet/sec  ETV
vector 499  University.whttpStudents[6].wlan[0].inputHook[0]  "thruput (bit/sec)"  ETV
vector 500  University.whttpStudents[6].wlan[0].inputHook[0]  packet/sec  ETV
vector 185  University.whttpStudents[4].tcpApp[0]  rcvdPk:vector(packetBytes)  ETV
attr interpolationmode  none
attr source  rcvdPk
attr title  "packets received, vector(packetBytes)"
vector 187  University.whttpStudents[4].tcpApp[0]  endToEndDelay:vector  ETV
attr interpolationmode  none
attr source  messageAge(rcvdPk)
attr title  "end-to-end delay, vector"
attr unit  s
vector 188  University.whttpStudents[4].tcpApp[0]  numActiveSessions:vector  ETV
attr interpolationmode  sample-hold
attr source  sum(connect)
attr title  "number of active sessions, vector"
vector 577  University.whttpStudents[14].wlan[0].outputHook[0]  "thruput (bit/sec)"  ETV
vector 578  University.whttpStudents[14].wlan[0].outputHook[0]  packet/sec  ETV
vector 176  University.whttpStudents[3].tcpApp[0]  numActiveSessions:vector  ETV
attr interpolationmode  sample-hold
attr source  sum(connect)
attr title  "number of active sessions, vector"
vector 174  University.whttpStudents[3].tcpApp[0]  sentPk:vector(packetBytes)  ETV
attr interpolationmode  none
attr source  sentPk
attr title  "packets sent, vector(packetBytes)"
vector 101  University.Server.tcpApp[0]  rcvdPk:vector(packetBytes)  ETV
attr interpolationmode  none
attr source  rcvdPk
attr title  "packets received, vector(packetBytes)"
vector 103  University.Server.tcpApp[0]  endToEndDelay:vector  ETV
attr interpolationmode  none
attr source  messageAge(rcvdPk)
attr title  "end-to-end delay, vector"
attr unit  s
vector 102  University.Server.tcpApp[0]  sentPk:vector(packetBytes)  ETV
attr interpolationmode  none
attr source  sentPk
attr title  "packets sent, vector(packetBytes)"
vector 272  University.whttpStudents[11].tcpApp[0]  numActiveSessions:vector  ETV
attr interpolationmode  sample-hold
attr source  sum(connect)
attr title  "number of active sessions, vector"
vector 467  University.whttpStudents[3].wlan[0].outputHook[0]  "thruput (bit/sec)"  ETV
vector 468  University.whttpStudents[3].wlan[0].outputHook[0]  packet/sec  ETV
vector 497  University.whttpStudents[6].wlan[0].outputHook[0]  "thruput (bit/sec)"  ETV
vector 498  University.whttpStudents[6].wlan[0].outputHook[0]  packet/sec  ETV
vector 547  University.whttpStudents[11].wlan[0].outputHook[0]  "thruput (bit/sec)"  ETV
vector 548  University.whttpStudents[11].wlan[0].outputHook[0]  packet/sec  ETV
vector 557  University.whttpStudents[12].wlan[0].outputHook[0]  "thruput (bit/sec)"  ETV
vector 558  University.whttpStudents[12].wlan[0].outputHook[0]  packet/sec  ETV
vector 517  University.whttpStudents[8].wlan[0].outputHook[0]  "thruput (bit/sec)"  ETV
vector 518  University.whttpStudents[8].wlan[0].outputHook[0]  packet/sec  ETV
vector 173  University.whttpStudents[3].tcpApp[0]  rcvdPk:vector(packetBytes)  ETV
attr interpolationmode  none
attr source  rcvdPk
attr title  "packets received, vector(packetBytes)"
vector 175  University.whttpStudents[3].tcpApp[0]  endToEndDelay:vector  ETV
attr interpolationmode  none
attr source  messageAge(rcvdPk)
attr title  "end-to-end delay, vector"
attr unit  s
vector 260  University.whttpStudents[10].tcpApp[0]  numActiveSessions:vector  ETV
attr interpolationmode  sample-hold
attr source  sum(connect)
attr title  "number of active sessions, vector"
vector 200  University.whttpStudents[5].tcpApp[0]  numActiveSessions:vector  ETV
attr interpolationmode  sample-hold
attr source  sum(connect)
attr title  "number of active sessions, vector"
vector 537  University.whttpStudents[10].wlan[0].outputHook[0]  "thruput (bit/sec)"  ETV
vector 538  University.whttpStudents[10].wlan[0].outputHook[0]  packet/sec  ETV
vector 487  University.whttpStudents[5].wlan[0].outputHook[0]  "thruput (bit/sec)"  ETV
vector 488  University.whttpStudents[5].wlan[0].outputHook[0]  packet/sec  ETV
vector 627  University.whostFTP.wlan[0].outputHook[0]  "thruput (bit/sec)"  ETV
vector 628  University.whostFTP.wlan[0].outputHook[0]  packet/sec  ETV
vector 186  University.whttpStudents[4].tcpApp[0]  sentPk:vector(packetBytes)  ETV
attr interpolationmode  none
attr source  sentPk
attr title  "packets sent, vector(packetBytes)"
vector 224  University.whttpStudents[7].tcpApp[0]  numActiveSessions:vector  ETV
attr interpolationmode  sample-hold
attr source  sum(connect)
attr title  "number of active sessions, vector"
vector 164  University.whttpStudents[2].tcpApp[0]  numActiveSessions:vector  ETV
attr interpolationmode  sample-hold
attr source  sum(connect)
attr title  "number of active sessions, vector"
vector 162  University.whttpStudents[2].tcpApp[0]  sentPk:vector(packetBytes)  ETV
attr interpolationmode  none
attr source  sentPk
attr title  "packets sent, vector(packetBytes)"
vector 607  University.whttpStudents[17].wlan[0].outputHook[0]  "thruput (bit/sec)"  ETV
vector 608  University.whttpStudents[17].wlan[0].outputHook[0]  packet/sec  ETV
vector 567  University.whttpStudents[13].wlan[0].outputHook[0]  "thruput (bit/sec)"  ETV
vector 568  University.whttpStudents[13].wlan[0].outputHook[0]  packet/sec  ETV
vector 457  University.whttpStudents[2].wlan[0].outputHook[0]  "thruput (bit/sec)"  ETV
vector 458  University.whttpStudents[2].wlan[0].outputHook[0]  packet/sec  ETV
vector 527  University.whttpStudents[9].wlan[0].outputHook[0]  "thruput (bit/sec)"  ETV
vector 528  University.whttpStudents[9].wlan[0].outputHook[0]  packet/sec  ETV
vector 161  University.whttpStudents[2].tcpApp[0]  rcvdPk:vector(packetBytes)  ETV
attr interpolationmode  none
attr source  rcvdPk
attr title  "packets received, vector(packetBytes)"
vector 163  University.whttpStudents[2].tcpApp[0]  endToEndDelay:vector  ETV
attr interpolationmode  none
attr source  messageAge(rcvdPk)
attr title  "end-to-end delay, vector"
attr unit  s
vector 507  University.whttpStudents[7].wlan[0].outputHook[0]  "thruput (bit/sec)"  ETV
vector 508  University.whttpStudents[7].wlan[0].outputHook[0]  packet/sec  ETV
vector 320  University.whttpStudents[15].tcpApp[0]  numActiveSessions:vector  ETV
attr interpolationmode  sample-hold
attr source  sum(connect)
attr title  "number of active sessions, vector"
vector 587  University.whttpStudents[15].wlan[0].outputHook[0]  "thruput (bit/sec)"  ETV
vector 588  University.whttpStudents[15].wlan[0].outputHook[0]  packet/sec  ETV
vector 152  University.whttpStudents[1].tcpApp[0]  numActiveSessions:vector  ETV
attr interpolationmode  sample-hold
attr source  sum(connect)
attr title  "number of active sessions, vector"
vector 150  University.whttpStudents[1].tcpApp[0]  sentPk:vector(packetBytes)  ETV
attr interpolationmode  none
attr source  sentPk
attr title  "packets sent, vector(packetBytes)"
vector 140  University.whttpStudents[0].tcpApp[0]  numActiveSessions:vector  ETV
attr interpolationmode  sample-hold
attr source  sum(connect)
attr title  "number of active sessions, vector"
vector 138  University.whttpStudents[0].tcpApp[0]  sentPk:vector(packetBytes)  ETV
attr interpolationmode  none
attr source  sentPk
attr title  "packets sent, vector(packetBytes)"
vector 447  University.whttpStudents[1].wlan[0].outputHook[0]  "thruput (bit/sec)"  ETV
vector 448  University.whttpStudents[1].wlan[0].outputHook[0]  packet/sec  ETV
vector 149  University.whttpStudents[1].tcpApp[0]  rcvdPk:vector(packetBytes)  ETV
attr interpolationmode  none
attr source  rcvdPk
attr title  "packets received, vector(packetBytes)"
vector 151  University.whttpStudents[1].tcpApp[0]  endToEndDelay:vector  ETV
attr interpolationmode  none
attr source  messageAge(rcvdPk)
attr title  "end-to-end delay, vector"
attr unit  s
vector 437  University.whttpStudents[0].wlan[0].outputHook[0]  "thruput (bit/sec)"  ETV
vector 438  University.whttpStudents[0].wlan[0].outputHook[0]  packet/sec  ETV
vector 137  University.whttpStudents[0].tcpApp[0]  rcvdPk:vector(packetBytes)  ETV
attr interpolationmode  none
attr source  rcvdPk
attr title  "packets received, vector(packetBytes)"
vector 139  University.whttpStudents[0].tcpApp[0]  endToEndDelay:vector  ETV
attr interpolationmode  none
attr source  messageAge(rcvdPk)
attr title  "end-to-end delay, vector"
attr unit  s
vector 332  University.whttpStudents[16].tcpApp[0]  numActiveSessions:vector  ETV
attr interpolationmode  sample-hold
attr source  sum(connect)
attr title  "number of active sessions, vector"
vector 597  University.whttpStudents[16].wlan[0].outputHook[0]  "thruput (bit/sec)"  ETV
vector 598  University.whttpStudents[16].wlan[0].outputHook[0]  packet/sec  ETV
vector 372  University.whostFTP.tcpApp[0]  numActiveSessions:vector  ETV
attr interpolationmode  sample-hold
attr source  sum(connect)
attr title  "number of active sessions, vector"
vector 296  University.whttpStudents[13].tcpApp[0]  numActiveSessions:vector  ETV
attr interpolationmode  sample-hold
attr source  sum(connect)
attr title  "number of active sessions, vector"
vector 344  University.whttpStudents[17].tcpApp[0]  numActiveSessions:vector  ETV
attr interpolationmode  sample-hold
attr source  sum(connect)
attr title  "number of active sessions, vector"
vector 248  University.whttpStudents[9].tcpApp[0]  numActiveSessions:vector  ETV
attr interpolationmode  sample-hold
attr source  sum(connect)
attr title  "number of active sessions, vector"
vector 236  University.whttpStudents[8].tcpApp[0]  numActiveSessions:vector  ETV
attr interpolationmode  sample-hold
attr source  sum(connect)
attr title  "number of active sessions, vector"
vector 284  University.whttpStudents[12].tcpApp[0]  numActiveSessions:vector  ETV
attr interpolationmode  sample-hold
attr source  sum(connect)
attr title  "number of active sessions, vector"
vector 397  University.remoteR.eth[1].outputHook[0]  "thruput (bit/sec)"  ETV
vector 398  University.remoteR.eth[1].outputHook[0]  packet/sec  ETV
vector 435  University.CCTV.eth[0].inputHook[0]  "thruput (bit/sec)"  ETV
vector 436  University.CCTV.eth[0].inputHook[0]  packet/sec  ETV
64	18738 2809819 415730 242166658 5.021950185468 3112.901950185468 77698 10240 10240 795627520 8147225804800
65	2828557 3508971 415730 242164617 5.021950185468 3112.861950185468 77697 0.017080129996 0.018073463328 1327.9499969911 22.696950270015
82	6337528 2730983 415660 242166273 5.017317898148 3112.897317898148 77698 1400 1400 108777200 152288080000
83	9068511 2732179 415745 242165452 5.033253113599 3112.873253113599 77697 1400 1400 108775800 152286120000
84	11800690 3506941 415660 242166273 5.017317898148 3112.897317898148 77698 0.016345635742 0.164079171417 1292.8486866225 21.818910977593
101	15307631 28947 908173 241914879 10.051048056984 3110.872997878709 878 1 1 878 878
102	15336578 33482 908173 241914879 10.051048056984 3110.872997878709 878 278 6165111 740227274 1.2988326664495e+15
103	15370060 40330 908173 241914879 10.051048056984 3110.872997878709 878 0.018340278753 0.026822641099 16.731686552477 0.32097132074465
119	15410390 2887608 415521 242165730 5.004870055472 3112.884870055472 77698 10240 10240 795627520 8147225804800
137	18297998 6802 2441211 241094167 39.672827763929 3096.708735411292 178 8050 6165111 155994699 2.8781862547779e+14
138	18304800 5874 2263966 240400938 37.658762056385 3090.626922424276 178 1 1 178 178
139	18310674 8172 2441211 241094167 39.672827763929 3096.708735411292 178 0.101356566181 15.410400632133 572.76218650092 3637.5128112137
140	18318846 11750 2262451 241094167 37.627709628219 3096.708735411292 356 0 1 178 178
149	18330596 7260 2409560 241139105 38.327613106093 3098.029480763975 190 278 4591086 155963899 2.556234885789e+14
150	18337856 6288 2127878 241107090 37.023438578456 3097.791709462012 190 1 1 190 190
151	18344144 8742 2409560 241139105 38.327613106093 3098.029480763975 190 0.030614173834 11.35971796609 571.62652282416 3386.6112086235
152	18352886 12574 2127210 241139105 36.993971172598 3098.029480763975 380 0 1 190 190
161	18365460 6793 1649944 241512439 23.842752074154 3103.687518909498 177 3711 5339122 158627603 2.8750292112643e+14
162	18372253 5868 1474974 241368799 21.934741373372 3102.750525491891 177 1 1 177 177
163	18378121 8152 1649944 241512439 23.842752074154 3103.687518909498 177 0.065360437655 13.742303800435 558.97840630272 3034.0068601529
164	18386273 11734 1417536 241512439 21.780607214876 3103.687518909498 354 0 1 177 177
173	18398007 6315 1284724 241900681 14.842845355 3109.75479680158 165 4992 4371297 138132945 2.2861025159552e+14
174	18404322 5479 907342 241914183 10.032680778231 3110.854603599956 166 1 1 166 166
175	18409801 7594 1284724 241900681 14.842845355 3109.75479680158 165 0.093152637405 17.862358920538 513.48914802391 3007.5416634005
176	18417395 10947 906374 241913618 10.001610397129 3110.82513623847 331 0 1 166 166
185	18428342 6402 892314 241518895 8.838827209312 3103.927519137099 168 1273 4577690 132768081 2.4387687967583e+14
186	18434744 5510 1358698 241166236 21.472578891896 3100.41523414892 167 1 1 167 167
187	18440254 7713 892314 241518895 8.838827209312 3103.927519137099 168 0.031433750293 11.61157286711 435.93066009923 2324.3801794314
188	18447967 11232 892314 241518895 8.838827209312 3103.927519137099 335 -1 0 -168 168
200	18459199 1183 1296194 238335385 15.724158892207 3057.018354650124 35 1 35 630 14910
212	18460382 1213 853454 239848838 8.732386982976 3083.009943118767 36 1 36 666 16206
224	18461595 1246 1379896 240012540 21.682553176164 3085.141184230935 37 1 37 703 17575
236	18462841 1185 5070691 239707327 88.15121777011 3082.604661773375 35 1 35 630 14910
248	18464026 1149 5047957 241902974 87.521113653001 3109.855959337795 34 1 34 595 13685
260	18465175 1180 1285591 241914920 14.864725510097 3110.87945138595 35 1 35 630 14910
272	18466355 1177 912568 238549405 10.163123645428 3068.312924513319 35 1 35 630 14910
284	18467532 1119 6309689 238049918 96.096799515836 3049.764617467145 33 1 33 561 12529
296	18468651 1149 4493377 238156655 76.829314478263 3054.169895756278 34 1 34 595 13685
308	18469800 1212 448119 242125774 5.952723784384 3111.750192500717 36 1 36 666 16206
320	18471012 1181 2088488 241797117 33.441555679554 3106.871046684273 35 1 35 630 14910
332	18472193 1217 2970754 241149910 49.834626880207 3098.930182066706 36 1 36 666 16206
344	18473410 1113 4513443 238898099 78.67243709996 3072.417961812757 33 1 33 561 12529
354	18474523 2809910 414591 242165512 5.000972262406 3112.880972262406 77698 1400 1400 108777200 152288080000
372	21284433 859 4473874 239079955 75 3075 41 1 41 861 23821
393	21285292 93858 456906 242165848 5.162343934005 3111.873535642157 2002 31.970007477701 11533128.107934 5688852999.5033 3.2925365639191e+16
394	21379150 93724 456906 242165848 5.162343934005 3111.873535642157 2002 0.14272324766831 961.09400899451 477463.32627181 231034680.17339
395	21472874 127162 450970 242145758 5.001361231482 3111.322428325473 3097 275862.40959249 588087.67119071 1050316040.3525 3.7171233700307e+14
396	21600036 119368 450970 242145758 5.001361231482 3111.322428325473 3097 25 944.04613527042 594836.87345534 262732883.61985
397	21719404 1134 15822610 234946496 120.044875865472 2880.964875865472 24 1.8660446517827 1.8660446517827 44.785071642786 83.570943418727
398	21720538 1206 15822610 234946496 120.044875865472 2880.964875865472 24 0.0083305564811729 0.0083305564811729 0.19993335554815 0.0016655561108643
399	21721744 121700 451078 242135077 5.004992185472 3111.005115225471 3107 2077600 2089367.2027084 6455120543.0587 1.3411194611909e+16
400	21843444 109280 451078 242135077 5.004992185472 3111.005115225471 3107 175 176 543750.97834717 95160993.378592
401	21952724 121699 451080 242135079 5.004992185472 3111.005115225471 3107 2363200 2664928 7508943403.3985 1.8163033015539e+16
402	22074423 109358 451080 242135079 5.004992185472 3111.005115225471 3107 200 1116 1140921.9736858 570615706.7355
403	22183781 93539 457995 242165846 5.193535693419 3111.873535642157 1995 75.27854245688 11533128.107934 5686699394.9955 3.2936002034139e+16
404	22277320 93391 457995 242165846 5.193535693419 3111.873535642157 1995 0.23524544517775 961.09400899451 477154.52360687 231019566.34213
405	22370711 93373 457906 242165757 5.182531026753 3111.862530975491 1994 75.278589680731 12600698.797788 6277435050.2083 4.0993357992869e+16
406	22464084 93164 457906 242165757 5.182531026753 3111.862530975491 1994 0.23524559275228 1050.058233149 526431.14653923 287317655.02368
407	22557248 123127 451167 242150713 5.012317898148 3111.457001518804 3107 2307815.5854392 2666464 7508922693.291 1.8162939272727e+16
408	22680375 111575 451167 242150713 5.012317898148 3111.457001518804 3107 198.15122516553 1119.9636602934 1140814.2845917 569462675.87338
409	22791950 118577 452031 242136014 5.038253113599 3111.038253113599 3107 273952 319648 922157600 2.7369768075776e+14
410	22910527 106149 452031 242136014 5.038253113599 3111.038253113599 3107 48 52 155350 7767510
411	23016676 118577 452028 242136011 5.038253113599 3111.038253113599 3107 285600 285600 887359200 2.5342978752e+14
412	23135253 106149 452028 242136011 5.038253113599 3111.038253113599 3107 25 25 77675 1941875
413	23241402 113236 452016 242165026 5.014177944881 3111.853173226953 2428 235.93459403145 294201.59494583 159894158.87869 23812235681051
414	23354638 113051 452016 242165026 5.014177944881 3111.853173226953 2428 0.59529211850822 919.3799842057 497567.52774791 231618560.49621
415	23467689 113259 452270 242165475 5.022531026753 3111.862530975491 2419 128 12216869.201755 6439892916.2634 4.0859540691859e+16
416	23580948 113151 452270 242165475 5.022531026753 3111.862530975491 2419 0.33333333333333 1020.215238496 543873.87083284 288011133.83881
417	23694099 123727 451229 242132784 5.019010852136 3110.941950185468 3106 2019939.9419723 2089499.7040142 6453098906.9508 1.3407200454042e+16
418	23817826 112764 451229 242132784 5.019010852136 3110.941950185468 3106 170.20574949209 175.99155240548 543556.09518678 95124004.613901
423	23930590 123727 451234 242132789 5.019010852136 3110.941950185468 3106 2019939.9419723 2089499.7040142 6453098906.9508 1.3407200454042e+16
424	24054317 112764 451234 242132789 5.019010852136 3110.941950185468 3106 170.20574949209 175.99155240548 543556.09518678 95124004.613901
425	24167081 118577 452009 242135268 5.033253113599 3111.033253113599 3107 285600 285600 887359200 2.5342978752e+14
426	24285658 106149 452009 242135268 5.033253113599 3111.033253113599 3107 25 25 77675 1941875
427	24391807 118577 451040 242134606 5.003253113599 3111.003253113599 3107 273952 319648 922157600 2.7369768075776e+14
428	24510384 106149 451040 242134606 5.003253113599 3111.003253113599 3107 48 52 155350 7767510
429	24616533 113058 452228 242165463 5.020707637545 3111.860707586283 2418 128 16458760.268623 6619084960.7011 4.4084435635493e+16
430	24729591 112868 452228 242165463 5.020707637545 3111.860707586283 2418 0.33333333333333 1373.9533500157 558809.97065674 310521052.46216
431	24842459 113229 452223 242165462 5.021712304211 3111.860707586283 2428 235.93448270123 294201.59494583 159894310.40875 23812382867038
432	24955688 113047 452223 242165462 5.021712304211 3111.860707586283 2428 0.59529211850822 919.3799842057 497568.0010729 231619996.72759
433	25068735 121684 451054 242135044 5.004870055472 3111.004870055472 3107 2077600 2077824 6455108800 1.3411145678694e+16
434	25190419 109256 451054 242135044 5.004870055472 3111.004870055472 3107 175 176 543750 95160650
435	25299675 1134 15822617 234946503 120.044881675472 2880.964881675472 24 1.8660446517827 1.8660446517827 44.785071642786 83.570943418727
436	25300809 1206 15822617 234946503 120.044881675472 2880.964881675472 24 0.0083305564811729 0.0083305564811729 0.19993335554815 0.0016655561108643
437	25302015 28368 2417983 240933895 37.627709628219 3094.647519012314 607 9.1236800859869 289390.96281621 27398476.951528 3729987509742.2
438	25330383 28452 2417983 240933895 37.627709628219 3094.647519012314 607 0.028511500268709 904.34675880064 85598.453968716 36408922.577117
439	25358835 31699 870363 241368492 5.953883833249 3095.745135548946 678 6.3540568893312 10852161.105608 1043637008.8685 5.3290242633503e+15
440	25390534 31812 870363 241368492 5.953883833249 3095.745135548946 678 0.0283663253988 904.34675880064 87414.542429303 37268619.427404
447	25422346 29504 2373353 241106372 36.993971172598 3089.025135601046 632 15.036327543549 289526.63331908 27253586.959565 3501071722890.9
448	25451850 29580 2373353 241106372 36.993971172598 3089.025135601046 632 0.046988523573591 904.77072912213 85142.291350853 34172095.39077
449	25481430 32694 870395 241368528 5.953883843669 3097.791709462012 699 5.6624433098884 10846931.363914 1028049152.8213 4.9364068450544e+15
450	25514124 32780 870395 241368528 5.953883843669 3097.791709462012 699 0.025278764776287 904.77072912213 86141.812905924 34543503.403931
457	25546904 29363 1625686 241513914 21.780607214876 3102.719871269421 627 5.9582247498744 290215.03331146 28490663.517142 3715329510617.7
458	25576267 29464 1625686 241513914 21.780607214876 3102.719871269421 627 0.018619452343357 906.92197909832 89009.443460529 36264500.969883
459	25605731 32794 870339 241368464 5.953883821825 3084.247896791811 700 5.7826781015691 10862763.980607 1079296670.4299 5.3199937294523e+15