file 49368560 1471643491                                        
version 2
run _18to20on-4-20160819-23:34:52-21747
attr configname _18to20on
attr datetime 20160819-23:34:52
attr experiment _18to20on
attr inifile omnetpp.ini
attr iterationvars $0=18
attr iterationvars2 "$0=18, $repetition=4"
attr measurement $0=18
attr network University
attr processid 21747
attr repetition 4
attr replication #4
attr resultdir results
attr runnumber 4
attr seedset 4

vector 83  University.profLaptop.udpApp[0]  sentPk:vector(packetBytes)  ETV
attr interpolationmode  none
attr source  sentPk
attr title  "packets sent, vector(packetBytes)"
vector 64  University.ccTVMonitoringHost.udpApp[0]  rcvdPk:vector(packetBytes)  ETV
attr interpolationmode  none
attr source  rcvdPk
attr title  "packets received, vector(packetBytes)"
vector 65  University.ccTVMonitoringHost.udpApp[0]  endToEndDelay:vector  ETV
attr interpolationmode  none
attr source  messageAge(rcvdPk)
attr title  "end-to-end delay, vector"
attr unit  s
vector 354  University.whostVideoConf.udpApp[0]  sentPk:vector(packetBytes)  ETV
attr interpolationmode  none
attr source  sentPk
attr title  "packets sent, vector(packetBytes)"
vector 119  University.CCTV.udpApp[0]  sentPk:vector(packetBytes)  ETV
attr interpolationmode  none
attr source  sentPk
attr title  "packets sent, vector(packetBytes)"
vector 82  University.profLaptop.udpApp[0]  rcvdPk:vector(packetBytes)  ETV
attr interpolationmode  none
attr source  rcvdPk
attr title  "packets received, vector(packetBytes)"
vector 84  University.profLaptop.udpApp[0]  rcvdPkLifetime:vector  ETV
attr interpolationmode  none
attr source  messageAge(rcvdPk)
attr title  "received packet lifetime, vector"
attr unit  s
vector 407  University.mainR.ppp[0].inputHook[0]  "thruput (bit/sec)"  ETV
vector 408  University.mainR.ppp[0].inputHook[0]  packet/sec  ETV
vector 417  University.mainR.ppp[3].outputHook[0]  "thruput (bit/sec)"  ETV
vector 418  University.mainR.ppp[3].outputHook[0]  packet/sec  ETV
vector 423  University.ccTVMonitoringHost.ppp[0].inputHook[0]  "thruput (bit/sec)"  ETV
vector 424  University.ccTVMonitoringHost.ppp[0].inputHook[0]  packet/sec  ETV
vector 425  University.profLaptop.ppp[0].outputHook[0]  "thruput (bit/sec)"  ETV
vector 426  University.profLaptop.ppp[0].outputHook[0]  packet/sec  ETV
vector 411  University.mainR.ppp[1].inputHook[0]  "thruput (bit/sec)"  ETV
vector 412  University.mainR.ppp[1].inputHook[0]  packet/sec  ETV
vector 409  University.mainR.ppp[1].outputHook[0]  "thruput (bit/sec)"  ETV
vector 410  University.mainR.ppp[1].outputHook[0]  packet/sec  ETV
vector 427  University.profLaptop.ppp[0].inputHook[0]  "thruput (bit/sec)"  ETV
vector 428  University.profLaptop.ppp[0].inputHook[0]  packet/sec  ETV
vector 617  University.whostVideoConf.wlan[0].outputHook[0]  "thruput (bit/sec)"  ETV
vector 618  University.whostVideoConf.wlan[0].outputHook[0]  packet/sec  ETV
vector 639  University.accessPoint.wlan[0].inputHook[0]  "thruput (bit/sec)"  ETV
vector 640  University.accessPoint.wlan[0].inputHook[0]  packet/sec  ETV
vector 647  University.accessPoint.eth[0].outputHook[0]  "thruput (bit/sec)"  ETV
vector 648  University.accessPoint.eth[0].outputHook[0]  packet/sec  ETV
vector 395  University.remoteR.eth[0].inputHook[0]  "thruput (bit/sec)"  ETV
vector 396  University.remoteR.eth[0].inputHook[0]  packet/sec  ETV
vector 401  University.remoteR.ppp[0].outputHook[0]  "thruput (bit/sec)"  ETV
vector 402  University.remoteR.ppp[0].outputHook[0]  packet/sec  ETV
vector 433  University.CCTV.eth[0].outputHook[0]  "thruput (bit/sec)"  ETV
vector 434  University.CCTV.eth[0].outputHook[0]  packet/sec  ETV
vector 399  University.remoteR.eth[1].inputHook[0]  "thruput (bit/sec)"  ETV
vector 400  University.remoteR.eth[1].inputHook[0]  packet/sec  ETV
vector 188  University.whttpStudents[4].tcpApp[0]  numActiveSessions:vector  ETV
attr interpolationmode  sample-hold
attr source  sum(connect)
attr title  "number of active sessions, vector"
vector 413  University.mainR.ppp[2].outputHook[0]  "thruput (bit/sec)"  ETV
vector 414  University.mainR.ppp[2].outputHook[0]  packet/sec  ETV
vector 431  University.Server.ppp[0].inputHook[0]  "thruput (bit/sec)"  ETV
vector 432  University.Server.ppp[0].inputHook[0]  packet/sec  ETV
vector 429  University.Server.ppp[0].outputHook[0]  "thruput (bit/sec)"  ETV
vector 430  University.Server.ppp[0].outputHook[0]  packet/sec  ETV
vector 415  University.mainR.ppp[2].inputHook[0]  "thruput (bit/sec)"  ETV
vector 416  University.mainR.ppp[2].inputHook[0]  packet/sec  ETV
vector 186  University.whttpStudents[4].tcpApp[0]  sentPk:vector(packetBytes)  ETV
attr interpolationmode  none
attr source  sentPk
attr title  "packets sent, vector(packetBytes)"
vector 101  University.Server.tcpApp[0]  rcvdPk:vector(packetBytes)  ETV
attr interpolationmode  none
attr source  rcvdPk
attr title  "packets received, vector(packetBytes)"
vector 103  University.Server.tcpApp[0]  endToEndDelay:vector  ETV
attr interpolationmode  none
attr source  messageAge(rcvdPk)
attr title  "end-to-end delay, vector"
attr unit  s
vector 102  University.Server.tcpApp[0]  sentPk:vector(packetBytes)  ETV
attr interpolationmode  none
attr source  sentPk
attr title  "packets sent, vector(packetBytes)"
vector 393  University.remoteR.eth[0].outputHook[0]  "thruput (bit/sec)"  ETV
vector 394  University.remoteR.eth[0].outputHook[0]  packet/sec  ETV
vector 649  University.accessPoint.eth[0].inputHook[0]  "thruput (bit/sec)"  ETV
vector 650  University.accessPoint.eth[0].inputHook[0]  packet/sec  ETV
vector 637  University.accessPoint.wlan[0].outputHook[0]  "thruput (bit/sec)"  ETV
vector 638  University.accessPoint.wlan[0].outputHook[0]  packet/sec  ETV
vector 479  University.whttpStudents[4].wlan[0].inputHook[0]  "thruput (bit/sec)"  ETV
vector 480  University.whttpStudents[4].wlan[0].inputHook[0]  packet/sec  ETV
vector 477  University.whttpStudents[4].wlan[0].outputHook[0]  "thruput (bit/sec)"  ETV
vector 478  University.whttpStudents[4].wlan[0].outputHook[0]  packet/sec  ETV
vector 405  University.mainR.ppp[0].outputHook[0]  "thruput (bit/sec)"  ETV
vector 406  University.mainR.ppp[0].outputHook[0]  packet/sec  ETV
vector 403  University.remoteR.ppp[0].inputHook[0]  "thruput (bit/sec)"  ETV
vector 404  University.remoteR.ppp[0].inputHook[0]  packet/sec  ETV
vector 597  University.whttpStudents[16].wlan[0].outputHook[0]  "thruput (bit/sec)"  ETV
vector 598  University.whttpStudents[16].wlan[0].outputHook[0]  packet/sec  ETV
vector 577  University.whttpStudents[14].wlan[0].outputHook[0]  "thruput (bit/sec)"  ETV
vector 578  University.whttpStudents[14].wlan[0].outputHook[0]  packet/sec  ETV
vector 236  University.whttpStudents[8].tcpApp[0]  numActiveSessions:vector  ETV
attr interpolationmode  sample-hold
attr source  sum(connect)
attr title  "number of active sessions, vector"
vector 449  University.whttpStudents[1].wlan[0].inputHook[0]  "thruput (bit/sec)"  ETV
vector 450  University.whttpStudents[1].wlan[0].inputHook[0]  packet/sec  ETV
vector 539  University.whttpStudents[10].wlan[0].inputHook[0]  "thruput (bit/sec)"  ETV
vector 540  University.whttpStudents[10].wlan[0].inputHook[0]  packet/sec  ETV
vector 489  University.whttpStudents[5].wlan[0].inputHook[0]  "thruput (bit/sec)"  ETV
vector 490  University.whttpStudents[5].wlan[0].inputHook[0]  packet/sec  ETV
vector 499  University.whttpStudents[6].wlan[0].inputHook[0]  "thruput (bit/sec)"  ETV
vector 500  University.whttpStudents[6].wlan[0].inputHook[0]  packet/sec  ETV
vector 599  University.whttpStudents[16].wlan[0].inputHook[0]  "thruput (bit/sec)"  ETV
vector 600  University.whttpStudents[16].wlan[0].inputHook[0]  packet/sec  ETV
vector 579  University.whttpStudents[14].wlan[0].inputHook[0]  "thruput (bit/sec)"  ETV
vector 580  University.whttpStudents[14].wlan[0].inputHook[0]  packet/sec  ETV
vector 589  University.whttpStudents[15].wlan[0].inputHook[0]  "thruput (bit/sec)"  ETV
vector 590  University.whttpStudents[15].wlan[0].inputHook[0]  packet/sec  ETV
vector 609  University.whttpStudents[17].wlan[0].inputHook[0]  "thruput (bit/sec)"  ETV
vector 610  University.whttpStudents[17].wlan[0].inputHook[0]  packet/sec  ETV
vector 619  University.whostVideoConf.wlan[0].inputHook[0]  "thruput (bit/sec)"  ETV
vector 620  University.whostVideoConf.wlan[0].inputHook[0]  packet/sec  ETV
vector 459  University.whttpStudents[2].wlan[0].inputHook[0]  "thruput (bit/sec)"  ETV
vector 460  University.whttpStudents[2].wlan[0].inputHook[0]  packet/sec  ETV
vector 549  University.whttpStudents[11].wlan[0].inputHook[0]  "thruput (bit/sec)"  ETV
vector 550  University.whttpStudents[11].wlan[0].inputHook[0]  packet/sec  ETV
vector 559  University.whttpStudents[12].wlan[0].inputHook[0]  "thruput (bit/sec)"  ETV
vector 560  University.whttpStudents[12].wlan[0].inputHook[0]  packet/sec  ETV
vector 509  University.whttpStudents[7].wlan[0].inputHook[0]  "thruput (bit/sec)"  ETV
vector 510  University.whttpStudents[7].wlan[0].inputHook[0]  packet/sec  ETV
vector 569  University.whttpStudents[13].wlan[0].inputHook[0]  "thruput (bit/sec)"  ETV
vector 570  University.whttpStudents[13].wlan[0].inputHook[0]  packet/sec  ETV
vector 469  University.whttpStudents[3].wlan[0].inputHook[0]  "thruput (bit/sec)"  ETV
vector 470  University.whttpStudents[3].wlan[0].inputHook[0]  packet/sec  ETV
vector 629  University.whostFTP.wlan[0].inputHook[0]  "thruput (bit/sec)"  ETV
vector 630  University.whostFTP.wlan[0].inputHook[0]  packet/sec  ETV
vector 529  University.whttpStudents[9].wlan[0].inputHook[0]  "thruput (bit/sec)"  ETV
vector 530  University.whttpStudents[9].wlan[0].inputHook[0]  packet/sec  ETV
vector 439  University.whttpStudents[0].wlan[0].inputHook[0]  "thruput (bit/sec)"  ETV
vector 440  University.whttpStudents[0].wlan[0].inputHook[0]  packet/sec  ETV
vector 519  University.whttpStudents[8].wlan[0].inputHook[0]  "thruput (bit/sec)"  ETV
vector 520  University.whttpStudents[8].wlan[0].inputHook[0]  packet/sec  ETV
vector 152  University.whttpStudents[1].tcpApp[0]  numActiveSessions:vector  ETV
attr interpolationmode  sample-hold
attr source  sum(connect)
attr title  "number of active sessions, vector"
vector 150  University.whttpStudents[1].tcpApp[0]  sentPk:vector(packetBytes)  ETV
attr interpolationmode  none
attr source  sentPk
attr title  "packets sent, vector(packetBytes)"
vector 224  University.whttpStudents[7].tcpApp[0]  numActiveSessions:vector  ETV
attr interpolationmode  sample-hold
attr source  sum(connect)
attr title  "number of active sessions, vector"
vector 248  University.whttpStudents[9].tcpApp[0]  numActiveSessions:vector  ETV
attr interpolationmode  sample-hold
attr source  sum(connect)
attr title  "number of active sessions, vector"
vector 447  University.whttpStudents[1].wlan[0].outputHook[0]  "thruput (bit/sec)"  ETV
vector 448  University.whttpStudents[1].wlan[0].outputHook[0]  packet/sec  ETV
vector 517  University.whttpStudents[8].wlan[0].outputHook[0]  "thruput (bit/sec)"  ETV
vector 518  University.whttpStudents[8].wlan[0].outputHook[0]  packet/sec  ETV
vector 507  University.whttpStudents[7].wlan[0].outputHook[0]  "thruput (bit/sec)"  ETV
vector 508  University.whttpStudents[7].wlan[0].outputHook[0]  packet/sec  ETV
vector 527  University.whttpStudents[9].wlan[0].outputHook[0]  "thruput (bit/sec)"  ETV
vector 528  University.whttpStudents[9].wlan[0].outputHook[0]  packet/sec  ETV
vector 176  University.whttpStudents[3].tcpApp[0]  numActiveSessions:vector  ETV
attr interpolationmode  sample-hold
attr source  sum(connect)
attr title  "number of active sessions, vector"
vector 174  University.whttpStudents[3].tcpApp[0]  sentPk:vector(packetBytes)  ETV
attr interpolationmode  none
attr source  sentPk
attr title  "packets sent, vector(packetBytes)"
vector 140  University.whttpStudents[0].tcpApp[0]  numActiveSessions:vector  ETV
attr interpolationmode  sample-hold
attr source  sum(connect)
attr title  "number of active sessions, vector"
vector 138  University.whttpStudents[0].tcpApp[0]  sentPk:vector(packetBytes)  ETV
attr interpolationmode  none
attr source  sentPk
attr title  "packets sent, vector(packetBytes)"
vector 467  University.whttpStudents[3].wlan[0].outputHook[0]  "thruput (bit/sec)"  ETV
vector 468  University.whttpStudents[3].wlan[0].outputHook[0]  packet/sec  ETV
vector 173  University.whttpStudents[3].tcpApp[0]  rcvdPk:vector(packetBytes)  ETV
attr interpolationmode  none
attr source  rcvdPk
attr title  "packets received, vector(packetBytes)"
vector 175  University.whttpStudents[3].tcpApp[0]  endToEndDelay:vector  ETV
attr interpolationmode  none
attr source  messageAge(rcvdPk)
attr title  "end-to-end delay, vector"
attr unit  s
vector 437  University.whttpStudents[0].wlan[0].outputHook[0]  "thruput (bit/sec)"  ETV
vector 438  University.whttpStudents[0].wlan[0].outputHook[0]  packet/sec  ETV
vector 627  University.whostFTP.wlan[0].outputHook[0]  "thruput (bit/sec)"  ETV
vector 628  University.whostFTP.wlan[0].outputHook[0]  packet/sec  ETV
vector 487  University.whttpStudents[5].wlan[0].outputHook[0]  "thruput (bit/sec)"  ETV
vector 488  University.whttpStudents[5].wlan[0].outputHook[0]  packet/sec  ETV
vector 537  University.whttpStudents[10].wlan[0].outputHook[0]  "thruput (bit/sec)"  ETV
vector 538  University.whttpStudents[10].wlan[0].outputHook[0]  packet/sec  ETV
vector 587  University.whttpStudents[15].wlan[0].outputHook[0]  "thruput (bit/sec)"  ETV
vector 588  University.whttpStudents[15].wlan[0].outputHook[0]  packet/sec  ETV
vector 272  University.whttpStudents[11].tcpApp[0]  numActiveSessions:vector  ETV
attr interpolationmode  sample-hold
attr source  sum(connect)
attr title  "number of active sessions, vector"
vector 344  University.whttpStudents[17].tcpApp[0]  numActiveSessions:vector  ETV
attr interpolationmode  sample-hold
attr source  sum(connect)
attr title  "number of active sessions, vector"
vector 547  University.whttpStudents[11].wlan[0].outputHook[0]  "thruput (bit/sec)"  ETV
vector 548  University.whttpStudents[11].wlan[0].outputHook[0]  packet/sec  ETV
vector 212  University.whttpStudents[6].tcpApp[0]  numActiveSessions:vector  ETV
attr interpolationmode  sample-hold
attr source  sum(connect)
attr title  "number of active sessions, vector"
vector 607  University.whttpStudents[17].wlan[0].outputHook[0]  "thruput (bit/sec)"  ETV
vector 608  University.whttpStudents[17].wlan[0].outputHook[0]  packet/sec  ETV
vector 497  University.whttpStudents[6].wlan[0].outputHook[0]  "thruput (bit/sec)"  ETV
vector 498  University.whttpStudents[6].wlan[0].outputHook[0]  packet/sec  ETV
vector 296  University.whttpStudents[13].tcpApp[0]  numActiveSessions:vector  ETV
attr interpolationmode  sample-hold
attr source  sum(connect)
attr title  "number of active sessions, vector"
vector 284  University.whttpStudents[12].tcpApp[0]  numActiveSessions:vector  ETV
attr interpolationmode  sample-hold
attr source  sum(connect)
attr title  "number of active sessions, vector"
vector 185  University.whttpStudents[4].tcpApp[0]  rcvdPk:vector(packetBytes)  ETV
attr interpolationmode  none
attr source  rcvdPk
attr title  "packets received, vector(packetBytes)"
vector 187  University.whttpStudents[4].tcpApp[0]  endToEndDelay:vector  ETV
attr interpolationmode  none
attr source  messageAge(rcvdPk)
attr title  "end-to-end delay, vector"
attr unit  s
vector 567  University.whttpStudents[13].wlan[0].outputHook[0]  "thruput (bit/sec)"  ETV
vector 568  University.whttpStudents[13].wlan[0].outputHook[0]  packet/sec  ETV
vector 557  University.whttpStudents[12].wlan[0].outputHook[0]  "thruput (bit/sec)"  ETV
vector 558  University.whttpStudents[12].wlan[0].outputHook[0]  packet/sec  ETV
vector 149  University.whttpStudents[1].tcpApp[0]  rcvdPk:vector(packetBytes)  ETV
attr interpolationmode  none
attr source  rcvdPk
attr title  "packets received, vector(packetBytes)"
vector 151  University.whttpStudents[1].tcpApp[0]  endToEndDelay:vector  ETV
attr interpolationmode  none
attr source  messageAge(rcvdPk)
attr title  "end-to-end delay, vector"
attr unit  s
vector 137  University.whttpStudents[0].tcpApp[0]  rcvdPk:vector(packetBytes)  ETV
attr interpolationmode  none
attr source  rcvdPk
attr title  "packets received, vector(packetBytes)"
vector 139  University.whttpStudents[0].tcpApp[0]  endToEndDelay:vector  ETV
attr interpolationmode  none
attr source  messageAge(rcvdPk)
attr title  "end-to-end delay, vector"
attr unit  s
vector 164  University.whttpStudents[2].tcpApp[0]  numActiveSessions:vector  ETV
attr interpolationmode  sample-hold
attr source  sum(connect)
attr title  "number of active sessions, vector"
vector 162  University.whttpStudents[2].tcpApp[0]  sentPk:vector(packetBytes)  ETV
attr interpolationmode  none
attr source  sentPk
attr title  "packets sent, vector(packetBytes)"
vector 457  University.whttpStudents[2].wlan[0].outputHook[0]  "thruput (bit/sec)"  ETV
vector 458  University.whttpStudents[2].wlan[0].outputHook[0]  packet/sec  ETV
vector 161  University.whttpStudents[2].tcpApp[0]  rcvdPk:vector(packetBytes)  ETV
attr interpolationmode  none
attr source  rcvdPk
attr title  "packets received, vector(packetBytes)"
vector 163  University.whttpStudents[2].tcpApp[0]  endToEndDelay:vector  ETV
attr interpolationmode  none
attr source  messageAge(rcvdPk)
attr title  "end-to-end delay, vector"
attr unit  s
vector 372  University.whostFTP.tcpApp[0]  numActiveSessions:vector  ETV
attr interpolationmode  sample-hold
attr source  sum(connect)
attr title  "number of active sessions, vector"
vector 308  University.whttpStudents[14].tcpApp[0]  numActiveSessions:vector  ETV
attr interpolationmode  sample-hold
attr source  sum(connect)
attr title  "number of active sessions, vector"
vector 320  University.whttpStudents[15].tcpApp[0]  numActiveSessions:vector  ETV
attr interpolationmode  sample-hold
attr source  sum(connect)
attr title  "number of active sessions, vector"
vector 260  University.whttpStudents[10].tcpApp[0]  numActiveSessions:vector  ETV
attr interpolationmode  sample-hold
attr source  sum(connect)
attr title  "number of active sessions, vector"
vector 332  University.whttpStudents[16].tcpApp[0]  numActiveSessions:vector  ETV
attr interpolationmode  sample-hold
attr source  sum(connect)
attr title  "number of active sessions, vector"
vector 200  University.whttpStudents[5].tcpApp[0]  numActiveSessions:vector  ETV
attr interpolationmode  sample-hold
attr source  sum(connect)
attr title  "number of active sessions, vector"
vector 397  University.remoteR.eth[1].outputHook[0]  "thruput (bit/sec)"  ETV
vector 398  University.remoteR.eth[1].outputHook[0]  packet/sec  ETV
vector 435  University.CCTV.eth[0].inputHook[0]  "thruput (bit/sec)"  ETV
vector 436  University.CCTV.eth[0].inputHook[0]  packet/sec  ETV
64	18738 2717203 84026 167264105 5.009010183458 3026.329010183458 75534 10240 10240 773468160 7920313958400
65	2735941 3396983 84026 167264105 5.009010183458 3026.329010183458 75534 0.017080129996 0.018068129995 1290.5362364544 22.049482930127
82	6132924 2640737 84417 167260366 5.037461978645 3026.318728854767 75532 1400 1400 105744800 148042720000
83	8773661 2641681 83988 167263288 5.006907812999 3026.326907812999 75534 1400 1400 105747600 148046640000
84	11415342 3395299 84417 167260366 5.037461978645 3026.318728854767 75532 0.016345625679 0.180244216371 1248.2843339441 20.829569708479
101	14810641 18793 126379 167075119 8.869507259699 3024.528274762233 571 1 1 571 571
102	14829434 21761 126379 167075119 8.869507259699 3024.528274762233 571 576 4525521 479048951 7.423449908116e+14
103	14851195 26100 126379 167075119 8.869507259699 3024.528274762233 571 0.113174264763 0.121018141087 65.076648688213 7.4182731607938
119	14877295 2792712 84315 167257672 5.031930053462 3026.311930053462 75533 10240 10240 773457920 7920209100800
137	17670007 4830 3544077 166230800 53.033565858155 3002.296088558912 127 801 4110615 101407676 1.6083694212224e+14
138	17674837 4217 1328603 167072565 19.012767316918 3024.415073424273 128 1 1 128 128
139	17679054 5847 3544077 166230800 53.033565858155 3002.296088558912 127 0.194150540434 37.59779578967 1240.6060251985 30897.007049846
140	17684901 8391 1321778 167069577 18.819310105244 3024.222879718829 255 0 1 128 128
149	17693292 3849 3515542 164737885 52.88669087743 2964.050030747535 101 20172 4275478 87338316 1.4426737786734e+14
150	17697141 3353 717034 166211677 13.846418614523 3001.533759133756 102 1 1 102 102
151	17700494 4649 3515542 164737885 52.88669087743 2964.050030747535 101 0.791597623438 48.456656089939 1249.7976072438 35947.65879387
152	17705143 6667 713802 166207998 13.652997500445 3001.340682179678 203 0 1 102 102
161	17711810 4200 4529570 167054469 58.318630317101 3023.290625148991 110 6373 3760469 100105695 1.5404377190784e+14
162	17716010 3617 4102500 166208550 56.341057016558 3001.353383272178 110 1 1 110 110
163	17719627 5080 4529570 167054469 58.318630317101 3023.290625148991 110 0.582076013232 46.191519196071 1321.0214981281 35205.560949923
164	17724707 7248 4073484 167054469 56.118044279435 3023.290625148991 220 0 1 110 110
173	17731955 4498 1336279 166944236 19.16457938363 3016.730286346142 118 576 3346640 87560728 1.0404539942864e+14
174	17736453 3890 1308561 166810725 18.174232481657 3014.981182537366 118 1 1 118 118
175	17740343 5446 1336279 166944236 19.16457938363 3016.730286346142 118 0.19312228471 45.644216898698 1176.3100276656 30154.23879631
176	17745789 7773 1304866 166944236 17.980811276947 3016.730286346142 236 0 1 118 118
185	17753562 4311 2778449 166168621 46.395341661415 2998.405713621473 113 1841 4525521 99894511 1.7538850431916e+14
186	17757873 3718 124635 165953602 8.75187580466 2996.420392178519 113 1 1 113 113
187	17761591 5218 2778449 166168621 46.395341661415 2998.405713621473 113 0.388937978887 40.031497104812 1242.8222692354 32049.692927093
188	17766809 7451 121844 166168621 8.558409624662 2998.405713621473 226 0 1 113 113
200	17774260 1110 6157945 166790667 96.835191003685 3013.812072844753 33 1 33 561 12529
212	17775370 1074 1851984 165898386 29.815874647804 2992.78921065327 32 1 32 528 11440
224	17776444 1142 718372 164085784 13.900114463296 2953.246503767059 34 1 34 595 13685
236	17777586 1175 713033 165920381 13.644715539979 2994.261309617513 35 1 35 630 14910
248	17778761 1105 723581 164774584 14.221572511872 2966.891729583576 33 1 33 561 12529
260	17779866 1078 5609938 164010566 87.687590503303 2949.94386990511 32 1 32 528 11440
272	17780944 1111 1770410 163652845 24.995053700125 2943.528660110733 33 1 33 561 12529
284	17782055 1144 2318585 166791237 44.632271752134 3013.836924252393 34 1 34 595 13685
296	17783199 1171 2085234 164022850 43.507380024064 2950.760495858702 35 1 35 630 14910
308	17784370 1145 5519007 165937764 82.16186777204 2995.403282699571 34 1 34 595 13685
320	17785515 1175 5528947 165092408 82.747511890013 2978.962436615403 35 1 35 630 14910
332	17786690 1074 6154459 164014941 96.586586723377 2950.262475572725 32 1 32 528 11440
344	17787764 1110 1818540 163083317 27.823184358613 2938.497914243653 33 1 33 561 12529
354	17788874 2717215 84040 167268531 5.021116352966 3026.341116352966 75534 1400 1400 105747600 148046640000
372	20506089 831 5399768 166190745 75 3000 40 1 40 820 22140
393	20506920 123107 142271 167100196 8.558481466205 3024.414997414811 2648 64.214808300703 9653321.2946025 3786042307.276 1.7822380580078e+16
394	20630027 122697 142271 167100196 8.558481466205 3024.414997414811 2648 0.2006712759397 808.59938216998 318030.09045328 124488540.1865
395	20752724 120244 95095 167268734 5.021505311979 3025.341505311979 3012 279044.24241972 560584.51138303 967686847.27323 3.2025615221989e+14
396	20872968 111265 95095 167092970 5.021505311979 3024.341505311979 3011 25 881.65085951853 410101.56570873 145780719.12492
397	20984233 1130 14526901 166203373 120.031935863462 2880.951935863462 24 1.8660446517827 1.8660446517827 44.785071642786 83.570943418727
398	20985363 1202 14526901 166203373 120.031935863462 2880.951935863462 24 0.0083305564811729 0.0083305564811729 0.19993335554815 0.0016655561108643
399	20986565 117757 95279 167170057 5.032052183462 3025.032175223461 3021 2077600 2089367.2027084 6276446943.0587 1.3039982340549e+16
400	21104322 105681 95279 167170057 5.032052183462 3025.032175223461 3021 175 176 528700.97834717 92527243.378592
401	21210003 117781 95097 167170059 5.021505311979 3025.032175223461 3021 2363200 2625600 7247329360.6937 1.7395596598879e+16
402	21327784 105718 95097 167170059 5.021505311979 3025.032175223461 3021 200 1020 941452.63702923 384919735.26571
403	21433502 123112 150681 167100194 8.751799803117 3024.414997414811 2648 64.214808300703 9653321.2946025 3785795980.1635 1.7827024256563e+16
404	21556614 122707 150681 167100194 8.751799803117 3024.414997414811 2648 0.2006712759397 808.59938216998 317889.33455068 124493900.57744
405	21679321 122490 150449 167100146 8.741763136451 3024.404960748145 2636 87.457571738908 11632036.391676 4032859065.3032 2.2157609761868e+16
406	21801811 122012 150449 167100146 8.741763136451 3024.404960748145 2636 0.27330491168409 971.43172160506 338495.32352339 154618264.97542
407	21923823 118135 94886 167216370 5.003056850128 3025.203056850128 3021 2325284.7570479 2620552 7247349669.0943 1.739574215552e+16
408	22041958 106373 94886 167216370 5.003056850128 3025.203056850128 3021 200 1004 941494.18691315 385208537.38429
409	22148331 114720 94968 167162741 5.011907812999 3025.011907812999 3021 262528 331072 896621376 2.6611787949466e+14
410	22263051 102636 94968 167162741 5.011907812999 3025.011907812999 3021 47 53 151049 7552431
411	22365687 114720 94965 167162738 5.011907812999 3025.011907812999 3021 285600 285600 862797600 2.4641499456e+14
412	22480407 102636 94965 167162738 5.011907812999 3025.011907812999 3021 25 25 75525 1888125
413	22583043 127506 122622 167161723 5.769046850124 3025.009041516791 2752 102.21455906101 275200 105557991.64097 12757052802598
414	22710549 127205 122622 167161723 5.769046850124 3025.009041516791 2752 0.31942049706565 860 327715.07635586 124075197.58508
415	22837754 125972 124551 167207661 5.940684150618 3025.180794977285 2711 134.93769356314 12341254.309986 4067887642.0298 2.2259300711066e+16
416	22963726 125465 124551 167207661 5.940684150618 3025.180794977285 2711 0.38334572034984 1032.3141956423 345246.8658258 156282733.39182
417	23089191 117983 94888 167216372 5.003056850128 3025.203056850128 3021 2019993.2560567 2088429.9517043 6276439112.5088 1.3039969265626e+16
418	23207174 106212 94888 167216372 5.003056850128 3025.203056850128 3021 170.21024188491 175.9014507561 528675.79092303 92518537.343502
423	23313386 117983 94893 167216377 5.003056850128 3025.203056850128 3021 2019993.2560567 2088429.9517043 6276439112.5088 1.3039969265626e+16
424	23431369 106212 94893 167216377 5.003056850128 3025.203056850128 3021 170.21024188491 175.9014507561 528675.79092303 92518537.343502
425	23537581 114720 94928 167160832 5.006907812999 3025.006907812999 3021 285600 285600 862797600 2.4641499456e+14
426	23652301 102636 94928 167160832 5.006907812999 3025.006907812999 3021 25 25 75525 1888125
427	23754937 114720 94973 167164603 5.016907812999 3025.016907812999 3021 262528 331072 896621376 2.6611787949466e+14
428	23869657 102636 94973 167164603 5.016907812999 3025.016907812999 3021 47 53 151049 7552431
429	23972293 124919 123753 167199644 5.871415819699 3025.111409846366 2711 134.93769356314 13853114.863872 4210685053.6972 2.3839677529282e+16
430	24097212 124387 123753 167199644 5.871415819699 3025.111409846366 2711 0.38334572034984 1158.0970028377 357156.76790198 167357815.14145
431	24221599 126504 123749 167199639 5.871415819699 3025.111409846366 2752 102.21453816538 275200 105557989.64656 12757051974347
432	24348103 126198 123749 167199639 5.871415819699 3025.111409846366 2752 0.31942043176681 860 327715.06994462 124075189.49068
433	24474301 117741 95255 167169925 5.031930053462 3025.031930053462 3021 2077600 2077824 6276435200 1.3039933407334e+16
434	24592042 105657 95255 167169925 5.031930053462 3025.031930053462 3021 175 176 528700 92526900
435	24697699 1130 14526908 166203380 120.031941673462 2880.951941673462 24 1.8660446517827 1.8660446517827 44.785071642786 83.570943418727
436	24698829 1202 14526908 166203380 120.031941673462 2880.951941673462 24 0.0083305564811729 0.0083305564811729 0.19993335554815 0.0016655561108643
437	24700031 56013 1356399 167093647 18.819310105244 3024.222879718829 1202 7.292143606851 232728.42538557 19757633.007474 2038598330990
438	24756044 55988 1356399 167093647 18.819310105244 3024.222879718829 1202 0.022787948771409 727.27632932991 61724.328679981 19907814.738635
439	24812032 57171 713378 167102916 8.559569695667 3024.415073424273 1227 8.0457294897132 8562820.1634047 683518834.9718 2.9100269528471e+15
440	24869203 57171 713378 167102916 8.559569695667 3024.415073424273 1227 0.035918435221934 714.41414760791 57348.386987936 20246783.291133
447	24926374 55058 737645 167115601 13.652997500445 3024.472207789013 1179 6.8440740603212 203908.06244989 17217993.374351 1714143384623.6
448	24981432 54785 737645 167115601 13.652997500445 3024.472207789013 1179 0.021387731438504 637.2126951559 53792.122565493 16739240.366263
449	25036217 56566 713268 167199001 8.559569671268 3024.863860552965 1210 3.9687974690602 7640567.7361194 620706013.14186 2.6652512708354e+15
450	25092783 56354 713268 167199001 8.559569671268 3024.863860552965 1210 0.017717845844019 637.2126951559 52056.130184809 18544132.465183
457	25149137 57717 4382661 167048039 56.118044279435 3021.737448060813 1235 5.9193970694536 190284.30047223 20002752.190465 2029609290241.3
458	25206854 57720 4382661 167048039 56.118044279435 3021.737448060813 1235 0.018498115842042 594.63843897573 62493.708483796 19820060.105068
459	25264574 58985 713324 167051195 8.559569686714 3021.931035522323 1269 5.2780395931756 7245659.3636773 714795983.24278 3.0652196042334e+15