file 47968680 1471644211                                        
version 2
run _18to20on-7-20160819-23:40:55-21840
attr configname _18to20on
attr datetime 20160819-23:40:55
attr experiment _18to20on
attr inifile omnetpp.ini
attr iterationvars $0=18
attr iterationvars2 "$0=18, $repetition=7"
attr measurement $0=18
attr network University
attr processid 21840
attr repetition 7
attr replication #7
attr resultdir results
attr runnumber 7
attr seedset 7

vector 119  University.CCTV.udpApp[0]  sentPk:vector(packetBytes)  ETV
attr interpolationmode  none
attr source  sentPk
attr title  "packets sent, vector(packetBytes)"
vector 354  University.whostVideoConf.udpApp[0]  sentPk:vector(packetBytes)  ETV
attr interpolationmode  none
attr source  sentPk
attr title  "packets sent, vector(packetBytes)"
vector 83  University.profLaptop.udpApp[0]  sentPk:vector(packetBytes)  ETV
attr interpolationmode  none
attr source  sentPk
attr title  "packets sent, vector(packetBytes)"
vector 64  University.ccTVMonitoringHost.udpApp[0]  rcvdPk:vector(packetBytes)  ETV
attr interpolationmode  none
attr source  rcvdPk
attr title  "packets received, vector(packetBytes)"
vector 65  University.ccTVMonitoringHost.udpApp[0]  endToEndDelay:vector  ETV
attr interpolationmode  none
attr source  messageAge(rcvdPk)
attr title  "end-to-end delay, vector"
attr unit  s
vector 82  University.profLaptop.udpApp[0]  rcvdPk:vector(packetBytes)  ETV
attr interpolationmode  none
attr source  rcvdPk
attr title  "packets received, vector(packetBytes)"
vector 84  University.profLaptop.udpApp[0]  rcvdPkLifetime:vector  ETV
attr interpolationmode  none
attr source  messageAge(rcvdPk)
attr title  "received packet lifetime, vector"
attr unit  s
vector 152  University.whttpStudents[1].tcpApp[0]  numActiveSessions:vector  ETV
attr interpolationmode  sample-hold
attr source  sum(connect)
attr title  "number of active sessions, vector"
vector 150  University.whttpStudents[1].tcpApp[0]  sentPk:vector(packetBytes)  ETV
attr interpolationmode  none
attr source  sentPk
attr title  "packets sent, vector(packetBytes)"
vector 101  University.Server.tcpApp[0]  rcvdPk:vector(packetBytes)  ETV
attr interpolationmode  none
attr source  rcvdPk
attr title  "packets received, vector(packetBytes)"
vector 103  University.Server.tcpApp[0]  endToEndDelay:vector  ETV
attr interpolationmode  none
attr source  messageAge(rcvdPk)
attr title  "end-to-end delay, vector"
attr unit  s
vector 102  University.Server.tcpApp[0]  sentPk:vector(packetBytes)  ETV
attr interpolationmode  none
attr source  sentPk
attr title  "packets sent, vector(packetBytes)"
vector 149  University.whttpStudents[1].tcpApp[0]  rcvdPk:vector(packetBytes)  ETV
attr interpolationmode  none
attr source  rcvdPk
attr title  "packets received, vector(packetBytes)"
vector 151  University.whttpStudents[1].tcpApp[0]  endToEndDelay:vector  ETV
attr interpolationmode  none
attr source  messageAge(rcvdPk)
attr title  "end-to-end delay, vector"
attr unit  s
vector 433  University.CCTV.eth[0].outputHook[0]  "thruput (bit/sec)"  ETV
vector 434  University.CCTV.eth[0].outputHook[0]  packet/sec  ETV
vector 399  University.remoteR.eth[1].inputHook[0]  "thruput (bit/sec)"  ETV
vector 400  University.remoteR.eth[1].inputHook[0]  packet/sec  ETV
vector 401  University.remoteR.ppp[0].outputHook[0]  "thruput (bit/sec)"  ETV
vector 402  University.remoteR.ppp[0].outputHook[0]  packet/sec  ETV
vector 617  University.whostVideoConf.wlan[0].outputHook[0]  "thruput (bit/sec)"  ETV
vector 618  University.whostVideoConf.wlan[0].outputHook[0]  packet/sec  ETV
vector 639  University.accessPoint.wlan[0].inputHook[0]  "thruput (bit/sec)"  ETV
vector 640  University.accessPoint.wlan[0].inputHook[0]  packet/sec  ETV
vector 647  University.accessPoint.eth[0].outputHook[0]  "thruput (bit/sec)"  ETV
vector 648  University.accessPoint.eth[0].outputHook[0]  packet/sec  ETV
vector 395  University.remoteR.eth[0].inputHook[0]  "thruput (bit/sec)"  ETV
vector 396  University.remoteR.eth[0].inputHook[0]  packet/sec  ETV
vector 407  University.mainR.ppp[0].inputHook[0]  "thruput (bit/sec)"  ETV
vector 408  University.mainR.ppp[0].inputHook[0]  packet/sec  ETV
vector 417  University.mainR.ppp[3].outputHook[0]  "thruput (bit/sec)"  ETV
vector 418  University.mainR.ppp[3].outputHook[0]  packet/sec  ETV
vector 423  University.ccTVMonitoringHost.ppp[0].inputHook[0]  "thruput (bit/sec)"  ETV
vector 424  University.ccTVMonitoringHost.ppp[0].inputHook[0]  packet/sec  ETV
vector 425  University.profLaptop.ppp[0].outputHook[0]  "thruput (bit/sec)"  ETV
vector 426  University.profLaptop.ppp[0].outputHook[0]  packet/sec  ETV
vector 411  University.mainR.ppp[1].inputHook[0]  "thruput (bit/sec)"  ETV
vector 412  University.mainR.ppp[1].inputHook[0]  packet/sec  ETV
vector 409  University.mainR.ppp[1].outputHook[0]  "thruput (bit/sec)"  ETV
vector 410  University.mainR.ppp[1].outputHook[0]  packet/sec  ETV
vector 427  University.profLaptop.ppp[0].inputHook[0]  "thruput (bit/sec)"  ETV
vector 428  University.profLaptop.ppp[0].inputHook[0]  packet/sec  ETV
vector 248  University.whttpStudents[9].tcpApp[0]  numActiveSessions:vector  ETV
attr interpolationmode  sample-hold
attr source  sum(connect)
attr title  "number of active sessions, vector"
vector 212  University.whttpStudents[6].tcpApp[0]  numActiveSessions:vector  ETV
attr interpolationmode  sample-hold
attr source  sum(connect)
attr title  "number of active sessions, vector"
vector 393  University.remoteR.eth[0].outputHook[0]  "thruput (bit/sec)"  ETV
vector 394  University.remoteR.eth[0].outputHook[0]  packet/sec  ETV
vector 649  University.accessPoint.eth[0].inputHook[0]  "thruput (bit/sec)"  ETV
vector 650  University.accessPoint.eth[0].inputHook[0]  packet/sec  ETV
vector 637  University.accessPoint.wlan[0].outputHook[0]  "thruput (bit/sec)"  ETV
vector 638  University.accessPoint.wlan[0].outputHook[0]  packet/sec  ETV
vector 629  University.whostFTP.wlan[0].inputHook[0]  "thruput (bit/sec)"  ETV
vector 630  University.whostFTP.wlan[0].inputHook[0]  packet/sec  ETV
vector 599  University.whttpStudents[16].wlan[0].inputHook[0]  "thruput (bit/sec)"  ETV
vector 600  University.whttpStudents[16].wlan[0].inputHook[0]  packet/sec  ETV
vector 489  University.whttpStudents[5].wlan[0].inputHook[0]  "thruput (bit/sec)"  ETV
vector 490  University.whttpStudents[5].wlan[0].inputHook[0]  packet/sec  ETV
vector 609  University.whttpStudents[17].wlan[0].inputHook[0]  "thruput (bit/sec)"  ETV
vector 610  University.whttpStudents[17].wlan[0].inputHook[0]  packet/sec  ETV
vector 459  University.whttpStudents[2].wlan[0].inputHook[0]  "thruput (bit/sec)"  ETV
vector 460  University.whttpStudents[2].wlan[0].inputHook[0]  packet/sec  ETV
vector 559  University.whttpStudents[12].wlan[0].inputHook[0]  "thruput (bit/sec)"  ETV
vector 560  University.whttpStudents[12].wlan[0].inputHook[0]  packet/sec  ETV
vector 519  University.whttpStudents[8].wlan[0].inputHook[0]  "thruput (bit/sec)"  ETV
vector 520  University.whttpStudents[8].wlan[0].inputHook[0]  packet/sec  ETV
vector 579  University.whttpStudents[14].wlan[0].inputHook[0]  "thruput (bit/sec)"  ETV
vector 580  University.whttpStudents[14].wlan[0].inputHook[0]  packet/sec  ETV
vector 529  University.whttpStudents[9].wlan[0].inputHook[0]  "thruput (bit/sec)"  ETV
vector 530  University.whttpStudents[9].wlan[0].inputHook[0]  packet/sec  ETV
vector 619  University.whostVideoConf.wlan[0].inputHook[0]  "thruput (bit/sec)"  ETV
vector 620  University.whostVideoConf.wlan[0].inputHook[0]  packet/sec  ETV
vector 539  University.whttpStudents[10].wlan[0].inputHook[0]  "thruput (bit/sec)"  ETV
vector 540  University.whttpStudents[10].wlan[0].inputHook[0]  packet/sec  ETV
vector 569  University.whttpStudents[13].wlan[0].inputHook[0]  "thruput (bit/sec)"  ETV
vector 570  University.whttpStudents[13].wlan[0].inputHook[0]  packet/sec  ETV
vector 509  University.whttpStudents[7].wlan[0].inputHook[0]  "thruput (bit/sec)"  ETV
vector 510  University.whttpStudents[7].wlan[0].inputHook[0]  packet/sec  ETV
vector 449  University.whttpStudents[1].wlan[0].inputHook[0]  "thruput (bit/sec)"  ETV
vector 450  University.whttpStudents[1].wlan[0].inputHook[0]  packet/sec  ETV
vector 439  University.whttpStudents[0].wlan[0].inputHook[0]  "thruput (bit/sec)"  ETV
vector 440  University.whttpStudents[0].wlan[0].inputHook[0]  packet/sec  ETV
vector 549  University.whttpStudents[11].wlan[0].inputHook[0]  "thruput (bit/sec)"  ETV
vector 550  University.whttpStudents[11].wlan[0].inputHook[0]  packet/sec  ETV
vector 479  University.whttpStudents[4].wlan[0].inputHook[0]  "thruput (bit/sec)"  ETV
vector 480  University.whttpStudents[4].wlan[0].inputHook[0]  packet/sec  ETV
vector 589  University.whttpStudents[15].wlan[0].inputHook[0]  "thruput (bit/sec)"  ETV
vector 590  University.whttpStudents[15].wlan[0].inputHook[0]  packet/sec  ETV
vector 469  University.whttpStudents[3].wlan[0].inputHook[0]  "thruput (bit/sec)"  ETV
vector 470  University.whttpStudents[3].wlan[0].inputHook[0]  packet/sec  ETV
vector 499  University.whttpStudents[6].wlan[0].inputHook[0]  "thruput (bit/sec)"  ETV
vector 500  University.whttpStudents[6].wlan[0].inputHook[0]  packet/sec  ETV
vector 413  University.mainR.ppp[2].outputHook[0]  "thruput (bit/sec)"  ETV
vector 414  University.mainR.ppp[2].outputHook[0]  packet/sec  ETV
vector 431  University.Server.ppp[0].inputHook[0]  "thruput (bit/sec)"  ETV
vector 432  University.Server.ppp[0].inputHook[0]  packet/sec  ETV
vector 429  University.Server.ppp[0].outputHook[0]  "thruput (bit/sec)"  ETV
vector 430  University.Server.ppp[0].outputHook[0]  packet/sec  ETV
vector 415  University.mainR.ppp[2].inputHook[0]  "thruput (bit/sec)"  ETV
vector 416  University.mainR.ppp[2].inputHook[0]  packet/sec  ETV
vector 176  University.whttpStudents[3].tcpApp[0]  numActiveSessions:vector  ETV
attr interpolationmode  sample-hold
attr source  sum(connect)
attr title  "number of active sessions, vector"
vector 405  University.mainR.ppp[0].outputHook[0]  "thruput (bit/sec)"  ETV
vector 406  University.mainR.ppp[0].outputHook[0]  packet/sec  ETV
vector 403  University.remoteR.ppp[0].inputHook[0]  "thruput (bit/sec)"  ETV
vector 404  University.remoteR.ppp[0].inputHook[0]  packet/sec  ETV
vector 174  University.whttpStudents[3].tcpApp[0]  sentPk:vector(packetBytes)  ETV
attr interpolationmode  none
attr source  sentPk
attr title  "packets sent, vector(packetBytes)"
vector 320  University.whttpStudents[15].tcpApp[0]  numActiveSessions:vector  ETV
attr interpolationmode  sample-hold
attr source  sum(connect)
attr title  "number of active sessions, vector"
vector 467  University.whttpStudents[3].wlan[0].outputHook[0]  "thruput (bit/sec)"  ETV
vector 468  University.whttpStudents[3].wlan[0].outputHook[0]  packet/sec  ETV
vector 527  University.whttpStudents[9].wlan[0].outputHook[0]  "thruput (bit/sec)"  ETV
vector 528  University.whttpStudents[9].wlan[0].outputHook[0]  packet/sec  ETV
vector 497  University.whttpStudents[6].wlan[0].outputHook[0]  "thruput (bit/sec)"  ETV
vector 498  University.whttpStudents[6].wlan[0].outputHook[0]  packet/sec  ETV
vector 188  University.whttpStudents[4].tcpApp[0]  numActiveSessions:vector  ETV
attr interpolationmode  sample-hold
attr source  sum(connect)
attr title  "number of active sessions, vector"
vector 186  University.whttpStudents[4].tcpApp[0]  sentPk:vector(packetBytes)  ETV
attr interpolationmode  none
attr source  sentPk
attr title  "packets sent, vector(packetBytes)"
vector 164  University.whttpStudents[2].tcpApp[0]  numActiveSessions:vector  ETV
attr interpolationmode  sample-hold
attr source  sum(connect)
attr title  "number of active sessions, vector"
vector 162  University.whttpStudents[2].tcpApp[0]  sentPk:vector(packetBytes)  ETV
attr interpolationmode  none
attr source  sentPk
attr title  "packets sent, vector(packetBytes)"
vector 477  University.whttpStudents[4].wlan[0].outputHook[0]  "thruput (bit/sec)"  ETV
vector 478  University.whttpStudents[4].wlan[0].outputHook[0]  packet/sec  ETV
vector 457  University.whttpStudents[2].wlan[0].outputHook[0]  "thruput (bit/sec)"  ETV
vector 458  University.whttpStudents[2].wlan[0].outputHook[0]  packet/sec  ETV
vector 567  University.whttpStudents[13].wlan[0].outputHook[0]  "thruput (bit/sec)"  ETV
vector 568  University.whttpStudents[13].wlan[0].outputHook[0]  packet/sec  ETV
vector 587  University.whttpStudents[15].wlan[0].outputHook[0]  "thruput (bit/sec)"  ETV
vector 588  University.whttpStudents[15].wlan[0].outputHook[0]  packet/sec  ETV
vector 173  University.whttpStudents[3].tcpApp[0]  rcvdPk:vector(packetBytes)  ETV
attr interpolationmode  none
attr source  rcvdPk
attr title  "packets received, vector(packetBytes)"
vector 175  University.whttpStudents[3].tcpApp[0]  endToEndDelay:vector  ETV
attr interpolationmode  none
attr source  messageAge(rcvdPk)
attr title  "end-to-end delay, vector"
attr unit  s
vector 607  University.whttpStudents[17].wlan[0].outputHook[0]  "thruput (bit/sec)"  ETV
vector 608  University.whttpStudents[17].wlan[0].outputHook[0]  packet/sec  ETV
vector 447  University.whttpStudents[1].wlan[0].outputHook[0]  "thruput (bit/sec)"  ETV
vector 448  University.whttpStudents[1].wlan[0].outputHook[0]  packet/sec  ETV
vector 161  University.whttpStudents[2].tcpApp[0]  rcvdPk:vector(packetBytes)  ETV
attr interpolationmode  none
attr source  rcvdPk
attr title  "packets received, vector(packetBytes)"
vector 163  University.whttpStudents[2].tcpApp[0]  endToEndDelay:vector  ETV
attr interpolationmode  none
attr source  messageAge(rcvdPk)
attr title  "end-to-end delay, vector"
attr unit  s
vector 185  University.whttpStudents[4].tcpApp[0]  rcvdPk:vector(packetBytes)  ETV
attr interpolationmode  none
attr source  rcvdPk
attr title  "packets received, vector(packetBytes)"
vector 187  University.whttpStudents[4].tcpApp[0]  endToEndDelay:vector  ETV
attr interpolationmode  none
attr source  messageAge(rcvdPk)
attr title  "end-to-end delay, vector"
attr unit  s
vector 224  University.whttpStudents[7].tcpApp[0]  numActiveSessions:vector  ETV
attr interpolationmode  sample-hold
attr source  sum(connect)
attr title  "number of active sessions, vector"
vector 140  University.whttpStudents[0].tcpApp[0]  numActiveSessions:vector  ETV
attr interpolationmode  sample-hold
attr source  sum(connect)
attr title  "number of active sessions, vector"
vector 138  University.whttpStudents[0].tcpApp[0]  sentPk:vector(packetBytes)  ETV
attr interpolationmode  none
attr source  sentPk
attr title  "packets sent, vector(packetBytes)"
vector 507  University.whttpStudents[7].wlan[0].outputHook[0]  "thruput (bit/sec)"  ETV
vector 508  University.whttpStudents[7].wlan[0].outputHook[0]  packet/sec  ETV
vector 437  University.whttpStudents[0].wlan[0].outputHook[0]  "thruput (bit/sec)"  ETV
vector 438  University.whttpStudents[0].wlan[0].outputHook[0]  packet/sec  ETV
vector 332  University.whttpStudents[16].tcpApp[0]  numActiveSessions:vector  ETV
attr interpolationmode  sample-hold
attr source  sum(connect)
attr title  "number of active sessions, vector"
vector 272  University.whttpStudents[11].tcpApp[0]  numActiveSessions:vector  ETV
attr interpolationmode  sample-hold
attr source  sum(connect)
attr title  "number of active sessions, vector"
vector 627  University.whostFTP.wlan[0].outputHook[0]  "thruput (bit/sec)"  ETV
vector 628  University.whostFTP.wlan[0].outputHook[0]  packet/sec  ETV
vector 597  University.whttpStudents[16].wlan[0].outputHook[0]  "thruput (bit/sec)"  ETV
vector 598  University.whttpStudents[16].wlan[0].outputHook[0]  packet/sec  ETV
vector 547  University.whttpStudents[11].wlan[0].outputHook[0]  "thruput (bit/sec)"  ETV
vector 548  University.whttpStudents[11].wlan[0].outputHook[0]  packet/sec  ETV
vector 137  University.whttpStudents[0].tcpApp[0]  rcvdPk:vector(packetBytes)  ETV
attr interpolationmode  none
attr source  rcvdPk
attr title  "packets received, vector(packetBytes)"
vector 139  University.whttpStudents[0].tcpApp[0]  endToEndDelay:vector  ETV
attr interpolationmode  none
attr source  messageAge(rcvdPk)
attr title  "end-to-end delay, vector"
attr unit  s
vector 200  University.whttpStudents[5].tcpApp[0]  numActiveSessions:vector  ETV
attr interpolationmode  sample-hold
attr source  sum(connect)
attr title  "number of active sessions, vector"
vector 487  University.whttpStudents[5].wlan[0].outputHook[0]  "thruput (bit/sec)"  ETV
vector 488  University.whttpStudents[5].wlan[0].outputHook[0]  packet/sec  ETV
vector 308  University.whttpStudents[14].tcpApp[0]  numActiveSessions:vector  ETV
attr interpolationmode  sample-hold
attr source  sum(connect)
attr title  "number of active sessions, vector"
vector 236  University.whttpStudents[8].tcpApp[0]  numActiveSessions:vector  ETV
attr interpolationmode  sample-hold
attr source  sum(connect)
attr title  "number of active sessions, vector"
vector 577  University.whttpStudents[14].wlan[0].outputHook[0]  "thruput (bit/sec)"  ETV
vector 578  University.whttpStudents[14].wlan[0].outputHook[0]  packet/sec  ETV
vector 517  University.whttpStudents[8].wlan[0].outputHook[0]  "thruput (bit/sec)"  ETV
vector 518  University.whttpStudents[8].wlan[0].outputHook[0]  packet/sec  ETV
vector 260  University.whttpStudents[10].tcpApp[0]  numActiveSessions:vector  ETV
attr interpolationmode  sample-hold
attr source  sum(connect)
attr title  "number of active sessions, vector"
vector 537  University.whttpStudents[10].wlan[0].outputHook[0]  "thruput (bit/sec)"  ETV
vector 538  University.whttpStudents[10].wlan[0].outputHook[0]  packet/sec  ETV
vector 284  University.whttpStudents[12].tcpApp[0]  numActiveSessions:vector  ETV
attr interpolationmode  sample-hold
attr source  sum(connect)
attr title  "number of active sessions, vector"
vector 557  University.whttpStudents[12].wlan[0].outputHook[0]  "thruput (bit/sec)"  ETV
vector 558  University.whttpStudents[12].wlan[0].outputHook[0]  packet/sec  ETV
vector 372  University.whostFTP.tcpApp[0]  numActiveSessions:vector  ETV
attr interpolationmode  sample-hold
attr source  sum(connect)
attr title  "number of active sessions, vector"
vector 296  University.whttpStudents[13].tcpApp[0]  numActiveSessions:vector  ETV
attr interpolationmode  sample-hold
attr source  sum(connect)
attr title  "number of active sessions, vector"
vector 344  University.whttpStudents[17].tcpApp[0]  numActiveSessions:vector  ETV
attr interpolationmode  sample-hold
attr source  sum(connect)
attr title  "number of active sessions, vector"
vector 397  University.remoteR.eth[1].outputHook[0]  "thruput (bit/sec)"  ETV
vector 398  University.remoteR.eth[1].outputHook[0]  packet/sec  ETV
vector 435  University.CCTV.eth[0].inputHook[0]  "thruput (bit/sec)"  ETV
vector 436  University.CCTV.eth[0].inputHook[0]  packet/sec  ETV
64	18738 2800505 81358 227486633 5.018317645156 3103.218317645156 77456 10240 10240 793149440 8121850265600
65	2819243 3497577 81358 227486633 5.018317645156 3103.218317645156 77456 0.017080129996 0.0172417708 1323.4733299147 22.613906097612
82	6316820 2721702 81375 227486650 5.024539587078 3103.224539587078 77456 1400 1400 108438400 151813760000
83	9038522 2723115 81282 227487030 5.012758889105 3103.252758889105 77457 1400 1400 108439800 151815720000
84	11761637 3493755 81375 227486650 5.024539587078 3103.224539587078 77456 0.016345623406 0.182214764138 1291.3135584153 21.777926484203
101	15255392 28553 88486 226816612 5.571848590515 3094.241496036523 864 1 1 864 864
102	15283945 33011 88486 226816612 5.571848590515 3094.241496036523 864 212 4053233 688788811 1.0011796846979e+15
103	15316956 39628 88486 226816612 5.571848590515 3094.241496036523 864 0.013191005223 0.021671088883 12.012373122711 0.16902800571757
119	15356584 2800569 80991 227486739 5.00123751516 3103.24123751516 77457 10240 10240 793159680 8121955123200
137	18157153 6885 2334615 227123552 26.625051641633 3096.292292126655 180 1135 3063181 134132634 1.774720056665e+14
138	18164038 5964 1564805 226703370 19.318594537239 3093.788407797115 180 1 1 180 180
139	18170002 8283 2334615 227123552 26.625051641633 3096.292292126655 180 0.032148985251 10.803339239738 522.19169766174 2834.0809306469
140	18178285 11911 1563638 227123552 19.281278008667 3096.292292126655 360 0 1 180 180
149	18190196 6604 165398 226499396 5.920468839677 3088.837361993864 173 2485 4053233 155872502 2.5071954481326e+14
150	18196800 5695 87713 224831461 5.558594537097 3078.118594537097 173 1 1 173 173
151	18202495 7938 165398 226499396 5.920468839677 3088.837361993864 173 0.064146131981 10.718767456767 557.8156741845 3093.4903424799
152	18210433 11388 86519 226499396 5.522816594271 3088.837361993864 346 0 1 173 173
161	18221821 7147 908724 227413892 12.721196876154 3097.934496969166 187 8386 3808292 153010034 2.3956788063495e+14
162	18228968 6206 401983 226724453 10.462770108052 3094.001844932031 187 1 1 187 187
163	18235174 8603 908724 227413892 12.721196876154 3097.934496969166 187 0.099451049344 11.984880804401 585.17174626232 3246.4151206851
164	18243777 12375 399746 227413892 10.430859374296 3097.934496969166 374 0 1 187 187
173	18256152 5922 676545 225798627 11.980215083344 3086.118345675662 155 7855 2689614 127891389 1.7789968389229e+14
174	18262074 5088 193065 225742247 8.186600311789 3085.814808310274 155 1 1 155 155
175	18267162 7122 676545 225798627 11.980215083344 3086.118345675662 155 0.098589619958 11.034989288424 491.76726027796 2731.7896972514
176	18274284 10233 191861 225798627 8.154680483121 3086.118345675662 310 0 1 155 155
185	18284517 6419 1392145 227441348 15.256419165222 3099.096621592977 169 212 3391211 117882252 1.5552056969093e+14
186	18290936 5570 399286 226811541 10.42563889134 3094.227772971783 169 1 1 169 169
187	18296506 7738 1392145 227441348 15.256419165222 3099.096621592977 169 0.03153252471 12.001027841056 459.11132311697 2522.0555676636
188	18304244 11127 397696 227441348 10.393683078228 3099.096621592977 338 0 1 169 169
200	18315371 1151 2591582 227472439 30.465652495106 3101.925877176338 34 1 34 595 13685
212	18316522 1214 181019 225743814 7.193323660225 3085.858062462455 36 1 36 666 16206
224	18317736 1216 1529888 223584633 16.828079831561 3072.3203860168 36 1 36 666 16206
236	18318952 1118 3028751 225560951 36.051591147907 3081.801820387774 33 1 33 561 12529
248	18320070 1213 171787 223528616 6.369098285642 3068.164637290599 36 1 36 666 16206
260	18321283 1184 3346199 223863060 40.149586292089 3073.342158569631 35 1 35 630 14910
272	18322467 1184 1813601 226145830 20.840248996126 3087.900136397302 35 1 35 630 14910
284	18323651 1076 3464189 221917183 44.974882717782 3042.361173500053 32 1 32 528 11440
296	18324727 1219 6895598 225344046 78.451366912254 3080.46392337436 36 1 36 666 16206
308	18325946 1179 2999251 220287554 35.974611223066 3021.68335022162 35 1 35 630 14910
320	18327125 1176 363477 220740760 8.93556542399 3027.558802388385 35 1 35 630 14910
332	18328301 1148 1812033 227093491 20.819027094993 3095.569318225493 34 1 34 595 13685
344	18329449 1082 8261711 226527741 88.23760025109 3091.311420482186 32 1 32 528 11440
354	18330531 2800570 81084 227486832 5.008193963672 3103.248193963672 77457 1400 1400 108439800 151815720000
372	21131101 860 6363934 224440529 75 3075 41 1 41 861 23821
393	21131961 95866 181121 227434515 5.522888436296 3097.791777388384 2042 30.202550120064 11546443.250458 5232339411.1176 2.7822455895852e+16
394	21227827 95817 181121 227434515 5.522888436296 3097.791777388384 2042 0.134832813036 963.09276661385 439331.64267094 195324655.98371
395	21323644 130836 167670 227477452 5.008582920412 3101.368582920412 3085 277271.74246626 584762.5685177 1035234562.739 3.6043234449136e+14
396	21454480 124804 167670 227477452 5.008582920412 3101.368582920412 3085 25 931.54959964103 558218.8533159 226831090.99453
397	21579284 1110 17485426 217890972 120.04124332516 2880.96124332516 24 1.8660446517827 1.8660446517827 44.785071642786 83.570943418727
398	21580394 1182 17485426 217890972 120.04124332516 2880.96124332516 24 0.0083305564811729 0.0083305564811729 0.19993335554815 0.0016655561108643
399	21581576 118328 167485 227484201 5.00135964516 3102.001482685159 3098 2077600 2089367.2027084 6436422143.0587 1.3372346816069e+16
400	21699904 105944 167485 227484201 5.00135964516 3102.001482685159 3098 175 176 542175.97834717 94885368.378592
401	21805848 118328 167487 227484203 5.00135964516 3102.001482685159 3098 2363172.5399351 2654216 7476123355.9246 1.8054545269986e+16
402	21924176 105972 167487 227484203 5.00135964516 3102.001482685159 3098 199.997676027 1109 1103034.9752831 520556369.06896
403	22030148 95007 192965 227434513 5.558518535072 3097.791777388384 2023 60.06129747789 11546443.250458 5216902687.791 2.7774291447492e+16
404	22125155 94935 192965 227434513 5.558518535072 3097.791777388384 2023 0.18769155461841 963.09276661385 437882.70414793 194904247.75087
405	22220090 94844 192913 227434423 5.548481868406 3097.780700436908 2022 51.364997717158 13954274.207951 5821156038.0914 3.6277495820989e+16
406	22314934 94669 192913 227434423 5.548481868406 3097.780700436908 2022 0.16051561786612 1166.13508539 488317.51081165 254355704.55978
407	22409603 122364 167740 227477137 5.012364311826 3101.332364311826 3097 2309574.8752822 2654208 7473729613.7855 1.8048676003842e+16
408	22531967 110589 167740 227477137 5.012364311826 3101.332364311826 3097 200 1109 1102741.0207251 519048647.98933
409	22642556 118211 167810 227484517 5.017758889105 3102.017758889105 3098 273952 319648 919486400 2.7290486859776e+14
410	22760767 105819 167810 227484517 5.017758889105 3102.017758889105 3098 48 52 154900 7745010
411	22866586 118211 167807 227484514 5.017758889105 3102.017758889105 3098 285600 285600 884788800 2.5269568128e+14
412	22984797 105819 167807 227484514 5.017758889105 3102.017758889105 3098 25 25 77450 1936250
413	23090616 115123 181803 227482358 5.538354311822 3101.474035880571 2460 73.953719062677 292021.89211727 148571012.21511 20295004207633
414	23205739 115041 181803 227482358 5.538354311822 3101.474035880571 2460 0.23110537207086 911.34429361244 462189.7638211 197349160.37554
415	23320780 114552 182048 227482425 5.548481868406 3101.484163437155 2443 108.61743674808 13954274.207951 6017645305.618 3.641118563338e+16
416	23435332 114580 182048 227482425 5.548481868406 3101.484163437155 2443 0.30857226348888 1166.13508539 508612.89771267 256776848.38313
417	23549912 121995 167742 227477139 5.012364311826 3101.332364311826 3097 2019993.2560567 2087725.22275 6434342412.9506 1.3368052734066e+16
418	23671907 110105 167742 227477139 5.012364311826 3101.332364311826 3097 170.21024188491 175.84209379977 541976.26488981 94846284.311611
423	23782012 121995 167747 227477144 5.012364311826 3101.332364311826 3097 2019993.2560567 2087725.22275 6434342412.9506 1.3368052734066e+16
424	23904007 110105 167747 227477144 5.012364311826 3101.332364311826 3097 170.21024188491 175.84209379977 541976.26488981 94846284.311611
425	24014112 118211 167752 227484459 5.012758889105 3102.012758889105 3098 285600 285600 884788800 2.5269568128e+14
426	24132323 105819 167752 227484459 5.012758889105 3102.012758889105 3098 25 25 77450 1936250
427	24238142 118211 167834 227484541 5.022758889105 3102.022758889105 3098 273952 319648 919486400 2.7290486859776e+14
428	24356353 105819 167834 227484541 5.022758889105 3102.022758889105 3098 48 52 154900 7745010
429	24462172 114478 181818 227482396 5.540740019166 3101.476421587915 2443 108.61743674808 22565575.26343 6129917337.2716 3.8245857871703e+16
430	24576650 114497 181818 227482396 5.540740019166 3101.476421587915 2443 0.30857226348888 1884.6022031238 517981.22692627 269649852.95263
431	24691147 115120 181814 227482395 5.540740019166 3101.476421587915 2460 73.953708124373 292021.89211727 148571028.59952 20295009500831
432	24806267 115039 181814 227482395 5.540740019166 3101.476421587915 2460 0.23110533788867 911.34429361244 462189.81482765 197349211.75581
433	24921306 118211 167461 227484168 5.00123751516 3102.00123751516 3098 2077600 2077824 6436410400 1.3372297882854e+16
434	25039517 105819 167461 227484168 5.00123751516 3102.00123751516 3098 175 176 542175 94885025
435	25145336 1110 17485433 217890979 120.04124913516 2880.96124913516 24 1.8660446517827 1.8660446517827 44.785071642786 83.570943418727
436	25146446 1182 17485433 217890979 120.04124913516 2880.96124913516 24 0.0083305564811729 0.0083305564811729 0.19993335554815 0.0016655561108643
437	25147628 27747 1794158 227110626 19.281278008667 3094.92070948437 591 18.532288586451 260408.41712106 23050888.542981 2709463948093.3
438	25175375 27806 1794158 227110626 19.281278008667 3094.92070948437 591 0.057913401832658 813.77630350332 72012.917438464 26442560.613089
439	25203181 33082 181330 227110622 5.523976658463 3094.92070948437 705 6.7140367441854 9753269.9995455 875392137.91253 3.7701710278808e+15
440	25236263 33247 181330 227110622 5.523976658463 3094.92070948437 705 0.029973378322256 813.10505826816 73407.132130046 26424295.631563
447	25269510 29634 802514 226140215 5.522816594271 3086.884391258605 632 5.4352463462444 287305.30783041 28310356.318512 3753384339072.2
448	25299144 29710 802514 226140215 5.522816594271 3086.884391258605 632 0.016985144832014 897.82908697003 88446.84565008 36635512.806567
449	25328854 34513 181324 226140211 5.524060658321 3086.884391258605 737 5.9401899791786 10755102.285586 1077353831.0703 5.3248987316208e+15
450	25363367 34669 181324 226140211 5.524060658321 3086.884391258605 737 0.02651870526419 896.76782401068 90251.304270168 37258708.708155
457	25398036 30432 639568 227297120 10.430859374296 3096.592522760973 648 18.455317359787 290838.38452247 27558679.326314 3551913493182.5
458	25428468 30424 639568 227297120 10.430859374296 3096.592522760973 648 0.057672866749334 908.86995163272 86097.539557532 34667330.905013
459	25458892 35449 181268 227297116 5.523976642256 3096.592522760973 756 6.6885236192359 10915680.6587 1031264461.786 4.8728468945627e+15