file 48215786 1471642754                                        
version 2
run _18to20on-2-20160819-23:15:38-21450
attr configname _18to20on
attr datetime 20160819-23:15:38
attr experiment _18to20on
attr inifile omnetpp.ini
attr iterationvars $0=18
attr iterationvars2 "$0=18, $repetition=2"
attr measurement $0=18
attr network University
attr processid 21450
attr repetition 2
attr replication #2
attr resultdir results
attr runnumber 2
attr seedset 2

vector 119  University.CCTV.udpApp[0]  sentPk:vector(packetBytes)  ETV
attr interpolationmode  none
attr source  sentPk
attr title  "packets sent, vector(packetBytes)"
vector 354  University.whostVideoConf.udpApp[0]  sentPk:vector(packetBytes)  ETV
attr interpolationmode  none
attr source  sentPk
attr title  "packets sent, vector(packetBytes)"
vector 64  University.ccTVMonitoringHost.udpApp[0]  rcvdPk:vector(packetBytes)  ETV
attr interpolationmode  none
attr source  rcvdPk
attr title  "packets received, vector(packetBytes)"
vector 65  University.ccTVMonitoringHost.udpApp[0]  endToEndDelay:vector  ETV
attr interpolationmode  none
attr source  messageAge(rcvdPk)
attr title  "end-to-end delay, vector"
attr unit  s
vector 82  University.profLaptop.udpApp[0]  rcvdPk:vector(packetBytes)  ETV
attr interpolationmode  none
attr source  rcvdPk
attr title  "packets received, vector(packetBytes)"
vector 84  University.profLaptop.udpApp[0]  rcvdPkLifetime:vector  ETV
attr interpolationmode  none
attr source  messageAge(rcvdPk)
attr title  "received packet lifetime, vector"
attr unit  s
vector 83  University.profLaptop.udpApp[0]  sentPk:vector(packetBytes)  ETV
attr interpolationmode  none
attr source  sentPk
attr title  "packets sent, vector(packetBytes)"
vector 152  University.whttpStudents[1].tcpApp[0]  numActiveSessions:vector  ETV
attr interpolationmode  sample-hold
attr source  sum(connect)
attr title  "number of active sessions, vector"
vector 150  University.whttpStudents[1].tcpApp[0]  sentPk:vector(packetBytes)  ETV
attr interpolationmode  none
attr source  sentPk
attr title  "packets sent, vector(packetBytes)"
vector 101  University.Server.tcpApp[0]  rcvdPk:vector(packetBytes)  ETV
attr interpolationmode  none
attr source  rcvdPk
attr title  "packets received, vector(packetBytes)"
vector 103  University.Server.tcpApp[0]  endToEndDelay:vector  ETV
attr interpolationmode  none
attr source  messageAge(rcvdPk)
attr title  "end-to-end delay, vector"
attr unit  s
vector 102  University.Server.tcpApp[0]  sentPk:vector(packetBytes)  ETV
attr interpolationmode  none
attr source  sentPk
attr title  "packets sent, vector(packetBytes)"
vector 411  University.mainR.ppp[1].inputHook[0]  "thruput (bit/sec)"  ETV
vector 412  University.mainR.ppp[1].inputHook[0]  packet/sec  ETV
vector 409  University.mainR.ppp[1].outputHook[0]  "thruput (bit/sec)"  ETV
vector 410  University.mainR.ppp[1].outputHook[0]  packet/sec  ETV
vector 427  University.profLaptop.ppp[0].inputHook[0]  "thruput (bit/sec)"  ETV
vector 428  University.profLaptop.ppp[0].inputHook[0]  packet/sec  ETV
vector 433  University.CCTV.eth[0].outputHook[0]  "thruput (bit/sec)"  ETV
vector 434  University.CCTV.eth[0].outputHook[0]  packet/sec  ETV
vector 399  University.remoteR.eth[1].inputHook[0]  "thruput (bit/sec)"  ETV
vector 400  University.remoteR.eth[1].inputHook[0]  packet/sec  ETV
vector 401  University.remoteR.ppp[0].outputHook[0]  "thruput (bit/sec)"  ETV
vector 402  University.remoteR.ppp[0].outputHook[0]  packet/sec  ETV
vector 617  University.whostVideoConf.wlan[0].outputHook[0]  "thruput (bit/sec)"  ETV
vector 618  University.whostVideoConf.wlan[0].outputHook[0]  packet/sec  ETV
vector 639  University.accessPoint.wlan[0].inputHook[0]  "thruput (bit/sec)"  ETV
vector 640  University.accessPoint.wlan[0].inputHook[0]  packet/sec  ETV
vector 647  University.accessPoint.eth[0].outputHook[0]  "thruput (bit/sec)"  ETV
vector 648  University.accessPoint.eth[0].outputHook[0]  packet/sec  ETV
vector 395  University.remoteR.eth[0].inputHook[0]  "thruput (bit/sec)"  ETV
vector 396  University.remoteR.eth[0].inputHook[0]  packet/sec  ETV
vector 407  University.mainR.ppp[0].inputHook[0]  "thruput (bit/sec)"  ETV
vector 408  University.mainR.ppp[0].inputHook[0]  packet/sec  ETV
vector 417  University.mainR.ppp[3].outputHook[0]  "thruput (bit/sec)"  ETV
vector 418  University.mainR.ppp[3].outputHook[0]  packet/sec  ETV
vector 423  University.ccTVMonitoringHost.ppp[0].inputHook[0]  "thruput (bit/sec)"  ETV
vector 424  University.ccTVMonitoringHost.ppp[0].inputHook[0]  packet/sec  ETV
vector 393  University.remoteR.eth[0].outputHook[0]  "thruput (bit/sec)"  ETV
vector 394  University.remoteR.eth[0].outputHook[0]  packet/sec  ETV
vector 649  University.accessPoint.eth[0].inputHook[0]  "thruput (bit/sec)"  ETV
vector 650  University.accessPoint.eth[0].inputHook[0]  packet/sec  ETV
vector 637  University.accessPoint.wlan[0].outputHook[0]  "thruput (bit/sec)"  ETV
vector 638  University.accessPoint.wlan[0].outputHook[0]  packet/sec  ETV
vector 425  University.profLaptop.ppp[0].outputHook[0]  "thruput (bit/sec)"  ETV
vector 426  University.profLaptop.ppp[0].outputHook[0]  packet/sec  ETV
vector 413  University.mainR.ppp[2].outputHook[0]  "thruput (bit/sec)"  ETV
vector 414  University.mainR.ppp[2].outputHook[0]  packet/sec  ETV
vector 431  University.Server.ppp[0].inputHook[0]  "thruput (bit/sec)"  ETV
vector 432  University.Server.ppp[0].inputHook[0]  packet/sec  ETV
vector 429  University.Server.ppp[0].outputHook[0]  "thruput (bit/sec)"  ETV
vector 430  University.Server.ppp[0].outputHook[0]  packet/sec  ETV
vector 415  University.mainR.ppp[2].inputHook[0]  "thruput (bit/sec)"  ETV
vector 416  University.mainR.ppp[2].inputHook[0]  packet/sec  ETV
vector 467  University.whttpStudents[3].wlan[0].outputHook[0]  "thruput (bit/sec)"  ETV
vector 468  University.whttpStudents[3].wlan[0].outputHook[0]  packet/sec  ETV
vector 469  University.whttpStudents[3].wlan[0].inputHook[0]  "thruput (bit/sec)"  ETV
vector 470  University.whttpStudents[3].wlan[0].inputHook[0]  packet/sec  ETV
vector 459  University.whttpStudents[2].wlan[0].inputHook[0]  "thruput (bit/sec)"  ETV
vector 460  University.whttpStudents[2].wlan[0].inputHook[0]  packet/sec  ETV
vector 457  University.whttpStudents[2].wlan[0].outputHook[0]  "thruput (bit/sec)"  ETV
vector 458  University.whttpStudents[2].wlan[0].outputHook[0]  packet/sec  ETV
vector 479  University.whttpStudents[4].wlan[0].inputHook[0]  "thruput (bit/sec)"  ETV
vector 480  University.whttpStudents[4].wlan[0].inputHook[0]  packet/sec  ETV
vector 477  University.whttpStudents[4].wlan[0].outputHook[0]  "thruput (bit/sec)"  ETV
vector 478  University.whttpStudents[4].wlan[0].outputHook[0]  packet/sec  ETV
vector 449  University.whttpStudents[1].wlan[0].inputHook[0]  "thruput (bit/sec)"  ETV
vector 450  University.whttpStudents[1].wlan[0].inputHook[0]  packet/sec  ETV
vector 447  University.whttpStudents[1].wlan[0].outputHook[0]  "thruput (bit/sec)"  ETV
vector 448  University.whttpStudents[1].wlan[0].outputHook[0]  packet/sec  ETV
vector 405  University.mainR.ppp[0].outputHook[0]  "thruput (bit/sec)"  ETV
vector 406  University.mainR.ppp[0].outputHook[0]  packet/sec  ETV
vector 403  University.remoteR.ppp[0].inputHook[0]  "thruput (bit/sec)"  ETV
vector 404  University.remoteR.ppp[0].inputHook[0]  packet/sec  ETV
vector 173  University.whttpStudents[3].tcpApp[0]  rcvdPk:vector(packetBytes)  ETV
attr interpolationmode  none
attr source  rcvdPk
attr title  "packets received, vector(packetBytes)"
vector 175  University.whttpStudents[3].tcpApp[0]  endToEndDelay:vector  ETV
attr interpolationmode  none
attr source  messageAge(rcvdPk)
attr title  "end-to-end delay, vector"
attr unit  s
vector 176  University.whttpStudents[3].tcpApp[0]  numActiveSessions:vector  ETV
attr interpolationmode  sample-hold
attr source  sum(connect)
attr title  "number of active sessions, vector"
vector 140  University.whttpStudents[0].tcpApp[0]  numActiveSessions:vector  ETV
attr interpolationmode  sample-hold
attr source  sum(connect)
attr title  "number of active sessions, vector"
vector 509  University.whttpStudents[7].wlan[0].inputHook[0]  "thruput (bit/sec)"  ETV
vector 510  University.whttpStudents[7].wlan[0].inputHook[0]  packet/sec  ETV
vector 539  University.whttpStudents[10].wlan[0].inputHook[0]  "thruput (bit/sec)"  ETV
vector 540  University.whttpStudents[10].wlan[0].inputHook[0]  packet/sec  ETV
vector 589  University.whttpStudents[15].wlan[0].inputHook[0]  "thruput (bit/sec)"  ETV
vector 590  University.whttpStudents[15].wlan[0].inputHook[0]  packet/sec  ETV
vector 489  University.whttpStudents[5].wlan[0].inputHook[0]  "thruput (bit/sec)"  ETV
vector 490  University.whttpStudents[5].wlan[0].inputHook[0]  packet/sec  ETV
vector 499  University.whttpStudents[6].wlan[0].inputHook[0]  "thruput (bit/sec)"  ETV
vector 500  University.whttpStudents[6].wlan[0].inputHook[0]  packet/sec  ETV
vector 559  University.whttpStudents[12].wlan[0].inputHook[0]  "thruput (bit/sec)"  ETV
vector 560  University.whttpStudents[12].wlan[0].inputHook[0]  packet/sec  ETV
vector 569  University.whttpStudents[13].wlan[0].inputHook[0]  "thruput (bit/sec)"  ETV
vector 570  University.whttpStudents[13].wlan[0].inputHook[0]  packet/sec  ETV
vector 629  University.whostFTP.wlan[0].inputHook[0]  "thruput (bit/sec)"  ETV
vector 630  University.whostFTP.wlan[0].inputHook[0]  packet/sec  ETV
vector 619  University.whostVideoConf.wlan[0].inputHook[0]  "thruput (bit/sec)"  ETV
vector 620  University.whostVideoConf.wlan[0].inputHook[0]  packet/sec  ETV
vector 519  University.whttpStudents[8].wlan[0].inputHook[0]  "thruput (bit/sec)"  ETV
vector 520  University.whttpStudents[8].wlan[0].inputHook[0]  packet/sec  ETV
vector 609  University.whttpStudents[17].wlan[0].inputHook[0]  "thruput (bit/sec)"  ETV
vector 610  University.whttpStudents[17].wlan[0].inputHook[0]  packet/sec  ETV
vector 599  University.whttpStudents[16].wlan[0].inputHook[0]  "thruput (bit/sec)"  ETV
vector 600  University.whttpStudents[16].wlan[0].inputHook[0]  packet/sec  ETV
vector 529  University.whttpStudents[9].wlan[0].inputHook[0]  "thruput (bit/sec)"  ETV
vector 530  University.whttpStudents[9].wlan[0].inputHook[0]  packet/sec  ETV
vector 579  University.whttpStudents[14].wlan[0].inputHook[0]  "thruput (bit/sec)"  ETV
vector 580  University.whttpStudents[14].wlan[0].inputHook[0]  packet/sec  ETV
vector 549  University.whttpStudents[11].wlan[0].inputHook[0]  "thruput (bit/sec)"  ETV
vector 550  University.whttpStudents[11].wlan[0].inputHook[0]  packet/sec  ETV
vector 439  University.whttpStudents[0].wlan[0].inputHook[0]  "thruput (bit/sec)"  ETV
vector 440  University.whttpStudents[0].wlan[0].inputHook[0]  packet/sec  ETV
vector 138  University.whttpStudents[0].tcpApp[0]  sentPk:vector(packetBytes)  ETV
attr interpolationmode  none
attr source  sentPk
attr title  "packets sent, vector(packetBytes)"
vector 437  University.whttpStudents[0].wlan[0].outputHook[0]  "thruput (bit/sec)"  ETV
vector 438  University.whttpStudents[0].wlan[0].outputHook[0]  packet/sec  ETV
vector 577  University.whttpStudents[14].wlan[0].outputHook[0]  "thruput (bit/sec)"  ETV
vector 578  University.whttpStudents[14].wlan[0].outputHook[0]  packet/sec  ETV
vector 497  University.whttpStudents[6].wlan[0].outputHook[0]  "thruput (bit/sec)"  ETV
vector 498  University.whttpStudents[6].wlan[0].outputHook[0]  packet/sec  ETV
vector 248  University.whttpStudents[9].tcpApp[0]  numActiveSessions:vector  ETV
attr interpolationmode  sample-hold
attr source  sum(connect)
attr title  "number of active sessions, vector"
vector 320  University.whttpStudents[15].tcpApp[0]  numActiveSessions:vector  ETV
attr interpolationmode  sample-hold
attr source  sum(connect)
attr title  "number of active sessions, vector"
vector 137  University.whttpStudents[0].tcpApp[0]  rcvdPk:vector(packetBytes)  ETV
attr interpolationmode  none
attr source  rcvdPk
attr title  "packets received, vector(packetBytes)"
vector 139  University.whttpStudents[0].tcpApp[0]  endToEndDelay:vector  ETV
attr interpolationmode  none
attr source  messageAge(rcvdPk)
attr title  "end-to-end delay, vector"
attr unit  s
vector 149  University.whttpStudents[1].tcpApp[0]  rcvdPk:vector(packetBytes)  ETV
attr interpolationmode  none
attr source  rcvdPk
attr title  "packets received, vector(packetBytes)"
vector 151  University.whttpStudents[1].tcpApp[0]  endToEndDelay:vector  ETV
attr interpolationmode  none
attr source  messageAge(rcvdPk)
attr title  "end-to-end delay, vector"
attr unit  s
vector 344  University.whttpStudents[17].tcpApp[0]  numActiveSessions:vector  ETV
attr interpolationmode  sample-hold
attr source  sum(connect)
attr title  "number of active sessions, vector"
vector 224  University.whttpStudents[7].tcpApp[0]  numActiveSessions:vector  ETV
attr interpolationmode  sample-hold
attr source  sum(connect)
attr title  "number of active sessions, vector"
vector 527  University.whttpStudents[9].wlan[0].outputHook[0]  "thruput (bit/sec)"  ETV
vector 528  University.whttpStudents[9].wlan[0].outputHook[0]  packet/sec  ETV
vector 587  University.whttpStudents[15].wlan[0].outputHook[0]  "thruput (bit/sec)"  ETV
vector 588  University.whttpStudents[15].wlan[0].outputHook[0]  packet/sec  ETV
vector 607  University.whttpStudents[17].wlan[0].outputHook[0]  "thruput (bit/sec)"  ETV
vector 608  University.whttpStudents[17].wlan[0].outputHook[0]  packet/sec  ETV
vector 507  University.whttpStudents[7].wlan[0].outputHook[0]  "thruput (bit/sec)"  ETV
vector 508  University.whttpStudents[7].wlan[0].outputHook[0]  packet/sec  ETV
vector 185  University.whttpStudents[4].tcpApp[0]  rcvdPk:vector(packetBytes)  ETV
attr interpolationmode  none
attr source  rcvdPk
attr title  "packets received, vector(packetBytes)"
vector 187  University.whttpStudents[4].tcpApp[0]  endToEndDelay:vector  ETV
attr interpolationmode  none
attr source  messageAge(rcvdPk)
attr title  "end-to-end delay, vector"
attr unit  s
vector 188  University.whttpStudents[4].tcpApp[0]  numActiveSessions:vector  ETV
attr interpolationmode  sample-hold
attr source  sum(connect)
attr title  "number of active sessions, vector"
vector 161  University.whttpStudents[2].tcpApp[0]  rcvdPk:vector(packetBytes)  ETV
attr interpolationmode  none
attr source  rcvdPk
attr title  "packets received, vector(packetBytes)"
vector 163  University.whttpStudents[2].tcpApp[0]  endToEndDelay:vector  ETV
attr interpolationmode  none
attr source  messageAge(rcvdPk)
attr title  "end-to-end delay, vector"
attr unit  s
vector 164  University.whttpStudents[2].tcpApp[0]  numActiveSessions:vector  ETV
attr interpolationmode  sample-hold
attr source  sum(connect)
attr title  "number of active sessions, vector"
vector 627  University.whostFTP.wlan[0].outputHook[0]  "thruput (bit/sec)"  ETV
vector 628  University.whostFTP.wlan[0].outputHook[0]  packet/sec  ETV
vector 557  University.whttpStudents[12].wlan[0].outputHook[0]  "thruput (bit/sec)"  ETV
vector 558  University.whttpStudents[12].wlan[0].outputHook[0]  packet/sec  ETV
vector 174  University.whttpStudents[3].tcpApp[0]  sentPk:vector(packetBytes)  ETV
attr interpolationmode  none
attr source  sentPk
attr title  "packets sent, vector(packetBytes)"
vector 597  University.whttpStudents[16].wlan[0].outputHook[0]  "thruput (bit/sec)"  ETV
vector 598  University.whttpStudents[16].wlan[0].outputHook[0]  packet/sec  ETV
vector 567  University.whttpStudents[13].wlan[0].outputHook[0]  "thruput (bit/sec)"  ETV
vector 568  University.whttpStudents[13].wlan[0].outputHook[0]  packet/sec  ETV
vector 236  University.whttpStudents[8].tcpApp[0]  numActiveSessions:vector  ETV
attr interpolationmode  sample-hold
attr source  sum(connect)
attr title  "number of active sessions, vector"
vector 200  University.whttpStudents[5].tcpApp[0]  numActiveSessions:vector  ETV
attr interpolationmode  sample-hold
attr source  sum(connect)
attr title  "number of active sessions, vector"
vector 517  University.whttpStudents[8].wlan[0].outputHook[0]  "thruput (bit/sec)"  ETV
vector 518  University.whttpStudents[8].wlan[0].outputHook[0]  packet/sec  ETV
vector 260  University.whttpStudents[10].tcpApp[0]  numActiveSessions:vector  ETV
attr interpolationmode  sample-hold
attr source  sum(connect)
attr title  "number of active sessions, vector"
vector 487  University.whttpStudents[5].wlan[0].outputHook[0]  "thruput (bit/sec)"  ETV
vector 488  University.whttpStudents[5].wlan[0].outputHook[0]  packet/sec  ETV
vector 537  University.whttpStudents[10].wlan[0].outputHook[0]  "thruput (bit/sec)"  ETV
vector 538  University.whttpStudents[10].wlan[0].outputHook[0]  packet/sec  ETV
vector 186  University.whttpStudents[4].tcpApp[0]  sentPk:vector(packetBytes)  ETV
attr interpolationmode  none
attr source  sentPk
attr title  "packets sent, vector(packetBytes)"
vector 162  University.whttpStudents[2].tcpApp[0]  sentPk:vector(packetBytes)  ETV
attr interpolationmode  none
attr source  sentPk
attr title  "packets sent, vector(packetBytes)"
vector 272  University.whttpStudents[11].tcpApp[0]  numActiveSessions:vector  ETV
attr interpolationmode  sample-hold
attr source  sum(connect)
attr title  "number of active sessions, vector"
vector 547  University.whttpStudents[11].wlan[0].outputHook[0]  "thruput (bit/sec)"  ETV
vector 548  University.whttpStudents[11].wlan[0].outputHook[0]  packet/sec  ETV
vector 372  University.whostFTP.tcpApp[0]  numActiveSessions:vector  ETV
attr interpolationmode  sample-hold
attr source  sum(connect)
attr title  "number of active sessions, vector"
vector 284  University.whttpStudents[12].tcpApp[0]  numActiveSessions:vector  ETV
attr interpolationmode  sample-hold
attr source  sum(connect)
attr title  "number of active sessions, vector"
vector 212  University.whttpStudents[6].tcpApp[0]  numActiveSessions:vector  ETV
attr interpolationmode  sample-hold
attr source  sum(connect)
attr title  "number of active sessions, vector"
vector 332  University.whttpStudents[16].tcpApp[0]  numActiveSessions:vector  ETV
attr interpolationmode  sample-hold
attr source  sum(connect)
attr title  "number of active sessions, vector"
vector 308  University.whttpStudents[14].tcpApp[0]  numActiveSessions:vector  ETV
attr interpolationmode  sample-hold
attr source  sum(connect)
attr title  "number of active sessions, vector"
vector 296  University.whttpStudents[13].tcpApp[0]  numActiveSessions:vector  ETV
attr interpolationmode  sample-hold
attr source  sum(connect)
attr title  "number of active sessions, vector"
vector 397  University.remoteR.eth[1].outputHook[0]  "thruput (bit/sec)"  ETV
vector 398  University.remoteR.eth[1].outputHook[0]  packet/sec  ETV
vector 435  University.CCTV.eth[0].inputHook[0]  "thruput (bit/sec)"  ETV
vector 436  University.CCTV.eth[0].inputHook[0]  packet/sec  ETV
64	18738 2793046 541576 202038696 5.028157942445 3100.388189275778 77385 10240 10240 792422400 8114405376000
65	2811784 3489483 541576 202038696 5.028157942445 3100.388189275778 77385 0.017080129996 0.018182544726 1321.982814548 22.58369485726
82	6301267 2714741 544289 202030398 5.035057120389 3100.35592321953 77383 1400 1400 108336200 151670680000
83	9016008 2715652 545118 202030913 5.037261634543 3100.357261634543 77384 1400 1400 108337600 151672640000
84	11731660 3487697 544289 202030398 5.035057120389 3100.35592321953 77383 0.016345620985 0.18238006832 1279.9415773456 21.386684037298
101	15219357 25807 773047 201903450 5.869914192424 3099.816736580127 782 1 1 782 782
102	15245164 29826 773047 201903450 5.869914192424 3099.816736580127 782 1 5197763 591528945 8.4522168289988e+14
103	15274990 35955 773047 201903450 5.869914192424 3099.816736580127 782 0.027990425914 0.03737678269 22.282042091943 0.63634942234667
119	15310945 2870457 538148 202035943 5.011077812449 3100.371077812449 77385 10240 10240 792422400 8114405376000
137	18181402 6035 1478555 200602836 12.559277132857 3090.414753249952 158 2674 3068210 121682487 1.6022149237458e+14
138	18187437 5215 1117573 200039303 8.621636872045 3083.303536049989 158 1 1 158 158
139	18192652 7264 1478555 200602836 12.559277132857 3090.414753249952 158 0.090707439407 42.690558528335 655.88891929929 6391.6664585952
140	18199916 10426 1114204 200602836 8.57250477185 3090.414753249952 316 0 1 158 158
149	18210342 6196 1483464 201749432 12.77472159626 3099.205001196335 163 325 4772361 117010261 1.6486186738056e+14
150	18216538 5418 768730 201901763 5.84189676651 3099.788259154213 164 1 1 164 164
151	18221956 7474 1483464 201749432 12.77472159626 3099.205001196335 163 0.044736382001 12.82934815131 584.64499181182 4134.0850157051
152	18229430 10789 763212 201843200 5.796775035326 3099.630238772163 327 0 1 164 164
161	18240219 6014 2405349 201530132 17.486554929902 3096.918915870408 158 1 4556488 125980467 1.982175771612e+14
162	18246233 5202 4040903 201735303 44.794319610307 3099.146903564285 158 1 1 158 158
163	18251435 7252 2405349 201530132 17.486554929902 3096.918915870408 158 0.04468850364 20.931239612779 627.9882786413 5290.1554189154
164	18258687 10545 2405349 201723228 17.486554929902 3099.103348803373 316 -1 0 -158 158
173	18269232 6146 1064982 201500104 7.674610045098 3096.094553251209 161 4182 5197763 125598376 1.900144076503e+14
174	18275378 5294 2738847 201401182 22.424828930898 3095.621636857462 160 1 1 160 160
175	18280672 7411 1064982 201500104 7.674610045098 3096.094553251209 161 0.091925742846 14.679694612114 648.96083427364 5193.2703531135
176	18288083 10765 1064982 201500104 7.674610045098 3096.094553251209 321 -1 0 -161 161
185	18298848 5400 2186133 198176836 16.803751807192 3055.786940418414 142 20195 3168047 104606744 1.4320945569824e+14
186	18304248 4674 3278497 201162153 31.974060188196 3094.541636855395 142 1 1 142 142
187	18308922 6508 2186133 198176836 16.803751807192 3055.786940418414 142 0.187585306087 14.843058151596 529.63048157111 4103.4120616046
188	18315430 9475 2186133 201160412 16.803751807192 3094.494127731023 284 -1 0 -142 142
200	18324905 1212 3115160 198945317 25.574926411812 3065.611360813161 36 1 36 666 16206
212	18326117 1115 6743658 198617739 87.967733910898 3062.746488679903 33 1 33 561 12529
224	18327232 1108 1497184 195861946 13.257243456347 3029.694844792309 33 1 33 561 12529
236	18328340 1215 2902346 199942166 23.080159391462 3079.811808630382 36 1 36 666 16206
248	18329555 1215 1452190 197949291 11.851722441049 3052.100302650282 36 1 36 666 16206
260	18330770 1145 3212618 200337027 28.116830800795 3088.36480893902 34 1 34 595 13685
272	18331915 1143 4506308 201163849 52.415689204889 3094.5794821564 34 1 34 595 13685
284	18333058 1114 6368258 192834194 80.337938070769 2997.18508392065 33 1 33 561 12529
296	18334172 1081 11382924 198893522 161.541864971635 3064.853920223297 32 1 32 528 11440
308	18335253 1116 8188237 196357526 110.563659047157 3038.93389989221 33 1 33 561 12529
320	18336369 1214 1476340 200599615 12.512545753758 3090.310489548145 36 1 36 666 16206
332	18337583 1149 7273866 197751766 93.010262954047 3048.760494067997 34 1 34 595 13685
344	18338732 1148 1486107 200623157 12.91667495242 3091.358081309961 34 1 34 595 13685
354	18339880 2793073 539019 202038363 5.018711499404 3100.378711499404 77385 1400 1400 108339000 151674600000
372	21132953 858 6042449 199562553 75 3075 41 1 41 861 23821
393	21133811 100010 784541 201910505 5.02263905866 3098.96903439382 2141 87.585596508795 11255070.682245 4614157408.7606 2.2714728534454e+16
394	21233821 100087 784541 201910505 5.02263905866 3098.96903439382 2141 0.28689453395446 939.94109702521 387572.00802713 159483128.38313
395	21333908 126252 784243 201903601 5.019100453723 3098.819100453723 3086 282768.27349264 587681.52735753 1015489872.2932 3.4555726853218e+14
396	21460160 118342 784243 201903601 5.019100453723 3098.819100453723 3086 25 934.54444473048 495706.41522245 189452310.71083
397	21578502 1132 17056053 192875179 120.011083622449 2880.931083622449 24 1.8660446517827 1.8660446517827 44.785071642786 83.570943418727
398	21579634 1204 17056053 192875179 120.011083622449 2880.931083622449 24 0.0083305564811729 0.0083305564811729 0.19993335554815 0.0016655561108643
399	21580838 121011 783986 201914851 5.011199942449 3099.011322982448 3095 2077600 2089367.2027084 6430189343.0587 1.3359397550789e+16
400	21701849 108639 783986 201914851 5.011199942449 3099.011322982448 3095 175 176 541650.97834717 94793493.378592
401	21810488 121010 783988 201914853 5.011199942449 3099.011322982448 3095 2363200 2661408 7448838857.3465 1.7938396904339e+16
402	21931498 108656 783988 201914853 5.011199942449 3099.011322982448 3095 200 1108 1039382.9672562 456723379.56969
403	22040154 99854 1022007 201910503 5.98263905866 3098.96903439382 2138 91.806250865427 11255070.682245 4607178856.7076 2.2676937128228e+16
404	22140008 99916 1022007 201910503 5.98263905866 3098.96903439382 2138 0.28689453395446 939.94109702521 386864.82472283 159143985.08587
405	22239924 99803 1021737 201910422 5.971634391994 3098.958029727154 2134 91.806321102041 12272259.772688 5129704900.7255 2.99672785157e+16
406	22339727 99784 1021737 201910422 5.971634391994 3098.958029727154 2134 0.28689475344388 1026.4273286359 430463.8610192 210048427.15415
407	22439511 122316 784367 202038655 5.022204609115 3099.386223275779 3095 2329494.4856201 2652288 7448940490.7131 1.7939031193484e+16
408	22561827 110631 784367 202038655 5.022204609115 3099.386223275779 3095 200 1103 1039585.8068226 457633910.10818
409	22672458 117900 783901 201914662 5.002261634543 3099.002261634543 3095 273952 319648 918584576 2.7263499116134e+14
410	22790358 105520 783901 201914662 5.002261634543 3099.002261634543 3095 48 52 154749 7737419
411	22895878 117900 783898 201914659 5.002261634543 3099.002261634543 3095 285600 285600 883932000 2.524509792e+14
412	23013778 105520 783898 201914659 5.002261634543 3099.002261634543 3095 25 25 77375 1934375
413	23119298 117744 787919 201910023 5.033468358796 3098.934584610938 2521 139.01419337092 291381.81102754 129961230.88094 16696142557857
414	23237042 117666 787919 201910023 5.033468358796 3098.934584610938 2521 0.43441935428411 907.97110240249 404020.77012257 162298483.39221
415	23354708 117033 789873 201910420 5.056913475012 3098.958029727154 2503 125.92941317796 12215777.238984 5242601860.1024 3.0025864608796e+16
416	23471741 117049 789873 201910420 5.056913475012 3098.958029727154 2503 0.33333333333333 1023.9679156723 443778.4079373 211767237.00253
417	23588790 121966 784369 202038657 5.022204609115 3099.386223275779 3095 2019993.2560567 2099564.2933919 6430228716.5527 1.3359597194449e+16
418	23710756 110187 784369 202038657 5.022204609115 3099.386223275779 3095 170.21024188491 176.8285496433 541629.71567151 94786275.616061
423	23820943 121966 784374 202038662 5.022204609115 3099.386223275779 3095 2019993.2560567 2099564.2933919 6430228716.5527 1.3359597194449e+16
424	23942909 110187 784374 202038662 5.022204609115 3099.386223275779 3095 170.21024188491 176.8285496433 541629.71567151 94786275.616061
425	24053096 117900 787543 201922079 5.037261634543 3099.037261634543 3095 285600 285600 883932000 2.524509792e+14
426	24170996 105520 787543 201922079 5.037261634543 3099.037261634543 3095 25 25 77375 1934375
427	24276516 117900 783927 201914797 5.007261634543 3099.007261634543 3095 273952 319648 918584576 2.7263499116134e+14
428	24394416 105520 783927 201914797 5.007261634543 3099.007261634543 3095 48 52 154749 7737419
429	24499936 116974 789589 201910339 5.050652878484 3098.951769130626 2503 125.92941317796 18385023.935923 5461752209.3888 3.3463965557303e+16
430	24616910 116980 789589 201910339 5.050652878484 3098.951769130626 2503 0.33333333333333 1536.9518421761 462058.2980968 235842643.87926
431	24733890 117775 789584 201910334 5.050652878484 3098.951769130626 2521 139.01415472104 291381.81102754 129961241.96689 16696145988835
432	24851665 117673 789584 201910334 5.050652878484 3098.951769130626 2521 0.43441923350324 907.97110240249 404020.80458862 162298516.69467
433	24969338 120995 783962 201914818 5.011077812449 3099.011077812449 3095 2077600 2077824 6430177600 1.3359348617574e+16
434	25090333 108615 783962 201914818 5.011077812449 3099.011077812449 3095 175 176 541650 94793150
435	25198948 1132 17056060 192875186 120.011089432449 2880.931089432449 24 1.8660446517827 1.8660446517827 44.785071642786 83.570943418727
436	25200080 1204 17056060 192875186 120.011089432449 2880.931089432449 24 0.0083305564811729 0.0083305564811729 0.19993335554815 0.0016655561108643
437	25201284 32429 1316685 200600388 8.57250477185 3089.289442800301 691 3.7889973546405 223956.42050893 21316714.396102 2438482733948.6
438	25233713 32463 1316685 200600388 8.57250477185 3089.289442800301 691 0.011840616733252 699.8638140904 66596.919812639 23798087.554835
439	25266176 35291 1114623 200601579 5.797935070787 3089.334721916619 752 4.0608019660903 9979049.7891845 808693061.46652 3.531189795128e+15
440	25301467 35394 1114623 200601579 5.797935070787 3089.334721916619 752 0.01812858020576 831.58748243204 67789.239142124 24744992.989338
447	25336861 30260 1010598 201904096 5.796775035326 3098.7883262611 648 16.627595059938 280801.20267249 21364420.98442 2611083176739.5
448	25367121 30339 1010598 201904096 5.796775035326 3098.7883262611 648 0.051961234562306 877.50375835153 66745.786322697 25483437.525133
449	25397460 34101 1010594 201903908 5.798028046144 3098.7883262611 730 6.4898172717975 10679575.083832 800389466.46302 3.687133270283e+15
450	25431561 34242 1010594 201903908 5.798028046144 3098.7883262611 730 0.02897239853481 890.18693090474 67077.472089667 25819561.257695
457	25465803 31127 962981 201963426 5.486127123955 3099.103348803373 665 10.203633467047 289496.88603366 22629649.079756 2790484301984
458	25496930 31186 962981 201963426 5.486127123955 3099.103348803373 665 0.03188635458452 904.67776885519 70698.794298127 27237013.763557
459	25528116 34460 962977 201963422 5.486127123955 3099.146903564285 737 5.1738200026435 10859845.02704 846003986.67877 3.9328273231342e+15