file 49400096 1471643823                                        
version 2
run _18to20on-6-20160819-23:39:15-21801
attr configname _18to20on
attr datetime 20160819-23:39:15
attr experiment _18to20on
attr inifile omnetpp.ini
attr iterationvars $0=18
attr iterationvars2 "$0=18, $repetition=6"
attr measurement $0=18
attr network University
attr processid 21801
attr repetition 6
attr replication #6
attr resultdir results
attr runnumber 6
attr seedset 6

vector 64  University.ccTVMonitoringHost.udpApp[0]  rcvdPk:vector(packetBytes)  ETV
attr interpolationmode  none
attr source  rcvdPk
attr title  "packets received, vector(packetBytes)"
vector 65  University.ccTVMonitoringHost.udpApp[0]  endToEndDelay:vector  ETV
attr interpolationmode  none
attr source  messageAge(rcvdPk)
attr title  "end-to-end delay, vector"
attr unit  s
vector 82  University.profLaptop.udpApp[0]  rcvdPk:vector(packetBytes)  ETV
attr interpolationmode  none
attr source  rcvdPk
attr title  "packets received, vector(packetBytes)"
vector 84  University.profLaptop.udpApp[0]  rcvdPkLifetime:vector  ETV
attr interpolationmode  none
attr source  messageAge(rcvdPk)
attr title  "received packet lifetime, vector"
attr unit  s
vector 83  University.profLaptop.udpApp[0]  sentPk:vector(packetBytes)  ETV
attr interpolationmode  none
attr source  sentPk
attr title  "packets sent, vector(packetBytes)"
vector 119  University.CCTV.udpApp[0]  sentPk:vector(packetBytes)  ETV
attr interpolationmode  none
attr source  sentPk
attr title  "packets sent, vector(packetBytes)"
vector 354  University.whostVideoConf.udpApp[0]  sentPk:vector(packetBytes)  ETV
attr interpolationmode  none
attr source  sentPk
attr title  "packets sent, vector(packetBytes)"
vector 407  University.mainR.ppp[0].inputHook[0]  "thruput (bit/sec)"  ETV
vector 408  University.mainR.ppp[0].inputHook[0]  packet/sec  ETV
vector 417  University.mainR.ppp[3].outputHook[0]  "thruput (bit/sec)"  ETV
vector 418  University.mainR.ppp[3].outputHook[0]  packet/sec  ETV
vector 423  University.ccTVMonitoringHost.ppp[0].inputHook[0]  "thruput (bit/sec)"  ETV
vector 424  University.ccTVMonitoringHost.ppp[0].inputHook[0]  packet/sec  ETV
vector 425  University.profLaptop.ppp[0].outputHook[0]  "thruput (bit/sec)"  ETV
vector 426  University.profLaptop.ppp[0].outputHook[0]  packet/sec  ETV
vector 411  University.mainR.ppp[1].inputHook[0]  "thruput (bit/sec)"  ETV
vector 412  University.mainR.ppp[1].inputHook[0]  packet/sec  ETV
vector 409  University.mainR.ppp[1].outputHook[0]  "thruput (bit/sec)"  ETV
vector 410  University.mainR.ppp[1].outputHook[0]  packet/sec  ETV
vector 427  University.profLaptop.ppp[0].inputHook[0]  "thruput (bit/sec)"  ETV
vector 428  University.profLaptop.ppp[0].inputHook[0]  packet/sec  ETV
vector 433  University.CCTV.eth[0].outputHook[0]  "thruput (bit/sec)"  ETV
vector 434  University.CCTV.eth[0].outputHook[0]  packet/sec  ETV
vector 399  University.remoteR.eth[1].inputHook[0]  "thruput (bit/sec)"  ETV
vector 400  University.remoteR.eth[1].inputHook[0]  packet/sec  ETV
vector 401  University.remoteR.ppp[0].outputHook[0]  "thruput (bit/sec)"  ETV
vector 402  University.remoteR.ppp[0].outputHook[0]  packet/sec  ETV
vector 617  University.whostVideoConf.wlan[0].outputHook[0]  "thruput (bit/sec)"  ETV
vector 618  University.whostVideoConf.wlan[0].outputHook[0]  packet/sec  ETV
vector 639  University.accessPoint.wlan[0].inputHook[0]  "thruput (bit/sec)"  ETV
vector 640  University.accessPoint.wlan[0].inputHook[0]  packet/sec  ETV
vector 647  University.accessPoint.eth[0].outputHook[0]  "thruput (bit/sec)"  ETV
vector 648  University.accessPoint.eth[0].outputHook[0]  packet/sec  ETV
vector 395  University.remoteR.eth[0].inputHook[0]  "thruput (bit/sec)"  ETV
vector 396  University.remoteR.eth[0].inputHook[0]  packet/sec  ETV
vector 413  University.mainR.ppp[2].outputHook[0]  "thruput (bit/sec)"  ETV
vector 414  University.mainR.ppp[2].outputHook[0]  packet/sec  ETV
vector 431  University.Server.ppp[0].inputHook[0]  "thruput (bit/sec)"  ETV
vector 432  University.Server.ppp[0].inputHook[0]  packet/sec  ETV
vector 393  University.remoteR.eth[0].outputHook[0]  "thruput (bit/sec)"  ETV
vector 394  University.remoteR.eth[0].outputHook[0]  packet/sec  ETV
vector 649  University.accessPoint.eth[0].inputHook[0]  "thruput (bit/sec)"  ETV
vector 650  University.accessPoint.eth[0].inputHook[0]  packet/sec  ETV
vector 637  University.accessPoint.wlan[0].outputHook[0]  "thruput (bit/sec)"  ETV
vector 638  University.accessPoint.wlan[0].outputHook[0]  packet/sec  ETV
vector 439  University.whttpStudents[0].wlan[0].inputHook[0]  "thruput (bit/sec)"  ETV
vector 440  University.whttpStudents[0].wlan[0].inputHook[0]  packet/sec  ETV
vector 429  University.Server.ppp[0].outputHook[0]  "thruput (bit/sec)"  ETV
vector 430  University.Server.ppp[0].outputHook[0]  packet/sec  ETV
vector 415  University.mainR.ppp[2].inputHook[0]  "thruput (bit/sec)"  ETV
vector 416  University.mainR.ppp[2].inputHook[0]  packet/sec  ETV
vector 405  University.mainR.ppp[0].outputHook[0]  "thruput (bit/sec)"  ETV
vector 406  University.mainR.ppp[0].outputHook[0]  packet/sec  ETV
vector 403  University.remoteR.ppp[0].inputHook[0]  "thruput (bit/sec)"  ETV
vector 404  University.remoteR.ppp[0].inputHook[0]  packet/sec  ETV
vector 437  University.whttpStudents[0].wlan[0].outputHook[0]  "thruput (bit/sec)"  ETV
vector 438  University.whttpStudents[0].wlan[0].outputHook[0]  packet/sec  ETV
vector 296  University.whttpStudents[13].tcpApp[0]  numActiveSessions:vector  ETV
attr interpolationmode  sample-hold
attr source  sum(connect)
attr title  "number of active sessions, vector"
vector 272  University.whttpStudents[11].tcpApp[0]  numActiveSessions:vector  ETV
attr interpolationmode  sample-hold
attr source  sum(connect)
attr title  "number of active sessions, vector"
vector 589  University.whttpStudents[15].wlan[0].inputHook[0]  "thruput (bit/sec)"  ETV
vector 590  University.whttpStudents[15].wlan[0].inputHook[0]  packet/sec  ETV
vector 469  University.whttpStudents[3].wlan[0].inputHook[0]  "thruput (bit/sec)"  ETV
vector 470  University.whttpStudents[3].wlan[0].inputHook[0]  packet/sec  ETV
vector 479  University.whttpStudents[4].wlan[0].inputHook[0]  "thruput (bit/sec)"  ETV
vector 480  University.whttpStudents[4].wlan[0].inputHook[0]  packet/sec  ETV
vector 539  University.whttpStudents[10].wlan[0].inputHook[0]  "thruput (bit/sec)"  ETV
vector 540  University.whttpStudents[10].wlan[0].inputHook[0]  packet/sec  ETV
vector 499  University.whttpStudents[6].wlan[0].inputHook[0]  "thruput (bit/sec)"  ETV
vector 500  University.whttpStudents[6].wlan[0].inputHook[0]  packet/sec  ETV
vector 579  University.whttpStudents[14].wlan[0].inputHook[0]  "thruput (bit/sec)"  ETV
vector 580  University.whttpStudents[14].wlan[0].inputHook[0]  packet/sec  ETV
vector 519  University.whttpStudents[8].wlan[0].inputHook[0]  "thruput (bit/sec)"  ETV
vector 520  University.whttpStudents[8].wlan[0].inputHook[0]  packet/sec  ETV
vector 509  University.whttpStudents[7].wlan[0].inputHook[0]  "thruput (bit/sec)"  ETV
vector 510  University.whttpStudents[7].wlan[0].inputHook[0]  packet/sec  ETV
vector 609  University.whttpStudents[17].wlan[0].inputHook[0]  "thruput (bit/sec)"  ETV
vector 610  University.whttpStudents[17].wlan[0].inputHook[0]  packet/sec  ETV
vector 489  University.whttpStudents[5].wlan[0].inputHook[0]  "thruput (bit/sec)"  ETV
vector 490  University.whttpStudents[5].wlan[0].inputHook[0]  packet/sec  ETV
vector 459  University.whttpStudents[2].wlan[0].inputHook[0]  "thruput (bit/sec)"  ETV
vector 460  University.whttpStudents[2].wlan[0].inputHook[0]  packet/sec  ETV
vector 449  University.whttpStudents[1].wlan[0].inputHook[0]  "thruput (bit/sec)"  ETV
vector 450  University.whttpStudents[1].wlan[0].inputHook[0]  packet/sec  ETV
vector 619  University.whostVideoConf.wlan[0].inputHook[0]  "thruput (bit/sec)"  ETV
vector 620  University.whostVideoConf.wlan[0].inputHook[0]  packet/sec  ETV
vector 569  University.whttpStudents[13].wlan[0].inputHook[0]  "thruput (bit/sec)"  ETV
vector 570  University.whttpStudents[13].wlan[0].inputHook[0]  packet/sec  ETV
vector 559  University.whttpStudents[12].wlan[0].inputHook[0]  "thruput (bit/sec)"  ETV
vector 560  University.whttpStudents[12].wlan[0].inputHook[0]  packet/sec  ETV
vector 629  University.whostFTP.wlan[0].inputHook[0]  "thruput (bit/sec)"  ETV
vector 630  University.whostFTP.wlan[0].inputHook[0]  packet/sec  ETV
vector 529  University.whttpStudents[9].wlan[0].inputHook[0]  "thruput (bit/sec)"  ETV
vector 530  University.whttpStudents[9].wlan[0].inputHook[0]  packet/sec  ETV
vector 599  University.whttpStudents[16].wlan[0].inputHook[0]  "thruput (bit/sec)"  ETV
vector 600  University.whttpStudents[16].wlan[0].inputHook[0]  packet/sec  ETV
vector 549  University.whttpStudents[11].wlan[0].inputHook[0]  "thruput (bit/sec)"  ETV
vector 550  University.whttpStudents[11].wlan[0].inputHook[0]  packet/sec  ETV
vector 248  University.whttpStudents[9].tcpApp[0]  numActiveSessions:vector  ETV
attr interpolationmode  sample-hold
attr source  sum(connect)
attr title  "number of active sessions, vector"
vector 567  University.whttpStudents[13].wlan[0].outputHook[0]  "thruput (bit/sec)"  ETV
vector 568  University.whttpStudents[13].wlan[0].outputHook[0]  packet/sec  ETV
vector 212  University.whttpStudents[6].tcpApp[0]  numActiveSessions:vector  ETV
attr interpolationmode  sample-hold
attr source  sum(connect)
attr title  "number of active sessions, vector"
vector 164  University.whttpStudents[2].tcpApp[0]  numActiveSessions:vector  ETV
attr interpolationmode  sample-hold
attr source  sum(connect)
attr title  "number of active sessions, vector"
vector 176  University.whttpStudents[3].tcpApp[0]  numActiveSessions:vector  ETV
attr interpolationmode  sample-hold
attr source  sum(connect)
attr title  "number of active sessions, vector"
vector 137  University.whttpStudents[0].tcpApp[0]  rcvdPk:vector(packetBytes)  ETV
attr interpolationmode  none
attr source  rcvdPk
attr title  "packets received, vector(packetBytes)"
vector 139  University.whttpStudents[0].tcpApp[0]  endToEndDelay:vector  ETV
attr interpolationmode  none
attr source  messageAge(rcvdPk)
attr title  "end-to-end delay, vector"
attr unit  s
vector 140  University.whttpStudents[0].tcpApp[0]  numActiveSessions:vector  ETV
attr interpolationmode  sample-hold
attr source  sum(connect)
attr title  "number of active sessions, vector"
vector 162  University.whttpStudents[2].tcpApp[0]  sentPk:vector(packetBytes)  ETV
attr interpolationmode  none
attr source  sentPk
attr title  "packets sent, vector(packetBytes)"
vector 174  University.whttpStudents[3].tcpApp[0]  sentPk:vector(packetBytes)  ETV
attr interpolationmode  none
attr source  sentPk
attr title  "packets sent, vector(packetBytes)"
vector 507  University.whttpStudents[7].wlan[0].outputHook[0]  "thruput (bit/sec)"  ETV
vector 508  University.whttpStudents[7].wlan[0].outputHook[0]  packet/sec  ETV
vector 101  University.Server.tcpApp[0]  rcvdPk:vector(packetBytes)  ETV
attr interpolationmode  none
attr source  rcvdPk
attr title  "packets received, vector(packetBytes)"
vector 103  University.Server.tcpApp[0]  endToEndDelay:vector  ETV
attr interpolationmode  none
attr source  messageAge(rcvdPk)
attr title  "end-to-end delay, vector"
attr unit  s
vector 102  University.Server.tcpApp[0]  sentPk:vector(packetBytes)  ETV
attr interpolationmode  none
attr source  sentPk
attr title  "packets sent, vector(packetBytes)"
vector 547  University.whttpStudents[11].wlan[0].outputHook[0]  "thruput (bit/sec)"  ETV
vector 548  University.whttpStudents[11].wlan[0].outputHook[0]  packet/sec  ETV
vector 457  University.whttpStudents[2].wlan[0].outputHook[0]  "thruput (bit/sec)"  ETV
vector 458  University.whttpStudents[2].wlan[0].outputHook[0]  packet/sec  ETV
vector 467  University.whttpStudents[3].wlan[0].outputHook[0]  "thruput (bit/sec)"  ETV
vector 468  University.whttpStudents[3].wlan[0].outputHook[0]  packet/sec  ETV
vector 527  University.whttpStudents[9].wlan[0].outputHook[0]  "thruput (bit/sec)"  ETV
vector 528  University.whttpStudents[9].wlan[0].outputHook[0]  packet/sec  ETV
vector 607  University.whttpStudents[17].wlan[0].outputHook[0]  "thruput (bit/sec)"  ETV
vector 608  University.whttpStudents[17].wlan[0].outputHook[0]  packet/sec  ETV
vector 320  University.whttpStudents[15].tcpApp[0]  numActiveSessions:vector  ETV
attr interpolationmode  sample-hold
attr source  sum(connect)
attr title  "number of active sessions, vector"
vector 497  University.whttpStudents[6].wlan[0].outputHook[0]  "thruput (bit/sec)"  ETV
vector 498  University.whttpStudents[6].wlan[0].outputHook[0]  packet/sec  ETV
vector 188  University.whttpStudents[4].tcpApp[0]  numActiveSessions:vector  ETV
attr interpolationmode  sample-hold
attr source  sum(connect)
attr title  "number of active sessions, vector"
vector 186  University.whttpStudents[4].tcpApp[0]  sentPk:vector(packetBytes)  ETV
attr interpolationmode  none
attr source  sentPk
attr title  "packets sent, vector(packetBytes)"
vector 477  University.whttpStudents[4].wlan[0].outputHook[0]  "thruput (bit/sec)"  ETV
vector 478  University.whttpStudents[4].wlan[0].outputHook[0]  packet/sec  ETV
vector 587  University.whttpStudents[15].wlan[0].outputHook[0]  "thruput (bit/sec)"  ETV
vector 588  University.whttpStudents[15].wlan[0].outputHook[0]  packet/sec  ETV
vector 185  University.whttpStudents[4].tcpApp[0]  rcvdPk:vector(packetBytes)  ETV
attr interpolationmode  none
attr source  rcvdPk
attr title  "packets received, vector(packetBytes)"
vector 187  University.whttpStudents[4].tcpApp[0]  endToEndDelay:vector  ETV
attr interpolationmode  none
attr source  messageAge(rcvdPk)
attr title  "end-to-end delay, vector"
attr unit  s
vector 161  University.whttpStudents[2].tcpApp[0]  rcvdPk:vector(packetBytes)  ETV
attr interpolationmode  none
attr source  rcvdPk
attr title  "packets received, vector(packetBytes)"
vector 163  University.whttpStudents[2].tcpApp[0]  endToEndDelay:vector  ETV
attr interpolationmode  none
attr source  messageAge(rcvdPk)
attr title  "end-to-end delay, vector"
attr unit  s
vector 308  University.whttpStudents[14].tcpApp[0]  numActiveSessions:vector  ETV
attr interpolationmode  sample-hold
attr source  sum(connect)
attr title  "number of active sessions, vector"
vector 173  University.whttpStudents[3].tcpApp[0]  rcvdPk:vector(packetBytes)  ETV
attr interpolationmode  none
attr source  rcvdPk
attr title  "packets received, vector(packetBytes)"
vector 175  University.whttpStudents[3].tcpApp[0]  endToEndDelay:vector  ETV
attr interpolationmode  none
attr source  messageAge(rcvdPk)
attr title  "end-to-end delay, vector"
attr unit  s
vector 284  University.whttpStudents[12].tcpApp[0]  numActiveSessions:vector  ETV
attr interpolationmode  sample-hold
attr source  sum(connect)
attr title  "number of active sessions, vector"
vector 627  University.whostFTP.wlan[0].outputHook[0]  "thruput (bit/sec)"  ETV
vector 628  University.whostFTP.wlan[0].outputHook[0]  packet/sec  ETV
vector 200  University.whttpStudents[5].tcpApp[0]  numActiveSessions:vector  ETV
attr interpolationmode  sample-hold
attr source  sum(connect)
attr title  "number of active sessions, vector"
vector 577  University.whttpStudents[14].wlan[0].outputHook[0]  "thruput (bit/sec)"  ETV
vector 578  University.whttpStudents[14].wlan[0].outputHook[0]  packet/sec  ETV
vector 557  University.whttpStudents[12].wlan[0].outputHook[0]  "thruput (bit/sec)"  ETV
vector 558  University.whttpStudents[12].wlan[0].outputHook[0]  packet/sec  ETV
vector 487  University.whttpStudents[5].wlan[0].outputHook[0]  "thruput (bit/sec)"  ETV
vector 488  University.whttpStudents[5].wlan[0].outputHook[0]  packet/sec  ETV
vector 260  University.whttpStudents[10].tcpApp[0]  numActiveSessions:vector  ETV
attr interpolationmode  sample-hold
attr source  sum(connect)
attr title  "number of active sessions, vector"
vector 537  University.whttpStudents[10].wlan[0].outputHook[0]  "thruput (bit/sec)"  ETV
vector 538  University.whttpStudents[10].wlan[0].outputHook[0]  packet/sec  ETV
vector 138  University.whttpStudents[0].tcpApp[0]  sentPk:vector(packetBytes)  ETV
attr interpolationmode  none
attr source  sentPk
attr title  "packets sent, vector(packetBytes)"
vector 332  University.whttpStudents[16].tcpApp[0]  numActiveSessions:vector  ETV
attr interpolationmode  sample-hold
attr source  sum(connect)
attr title  "number of active sessions, vector"
vector 597  University.whttpStudents[16].wlan[0].outputHook[0]  "thruput (bit/sec)"  ETV
vector 598  University.whttpStudents[16].wlan[0].outputHook[0]  packet/sec  ETV
vector 152  University.whttpStudents[1].tcpApp[0]  numActiveSessions:vector  ETV
attr interpolationmode  sample-hold
attr source  sum(connect)
attr title  "number of active sessions, vector"
vector 150  University.whttpStudents[1].tcpApp[0]  sentPk:vector(packetBytes)  ETV
attr interpolationmode  none
attr source  sentPk
attr title  "packets sent, vector(packetBytes)"
vector 447  University.whttpStudents[1].wlan[0].outputHook[0]  "thruput (bit/sec)"  ETV
vector 448  University.whttpStudents[1].wlan[0].outputHook[0]  packet/sec  ETV
vector 149  University.whttpStudents[1].tcpApp[0]  rcvdPk:vector(packetBytes)  ETV
attr interpolationmode  none
attr source  rcvdPk
attr title  "packets received, vector(packetBytes)"
vector 151  University.whttpStudents[1].tcpApp[0]  endToEndDelay:vector  ETV
attr interpolationmode  none
attr source  messageAge(rcvdPk)
attr title  "end-to-end delay, vector"
attr unit  s
vector 236  University.whttpStudents[8].tcpApp[0]  numActiveSessions:vector  ETV
attr interpolationmode  sample-hold
attr source  sum(connect)
attr title  "number of active sessions, vector"
vector 517  University.whttpStudents[8].wlan[0].outputHook[0]  "thruput (bit/sec)"  ETV
vector 518  University.whttpStudents[8].wlan[0].outputHook[0]  packet/sec  ETV
vector 372  University.whostFTP.tcpApp[0]  numActiveSessions:vector  ETV
attr interpolationmode  sample-hold
attr source  sum(connect)
attr title  "number of active sessions, vector"
vector 224  University.whttpStudents[7].tcpApp[0]  numActiveSessions:vector  ETV
attr interpolationmode  sample-hold
attr source  sum(connect)
attr title  "number of active sessions, vector"
vector 344  University.whttpStudents[17].tcpApp[0]  numActiveSessions:vector  ETV
attr interpolationmode  sample-hold
attr source  sum(connect)
attr title  "number of active sessions, vector"
vector 397  University.remoteR.eth[1].outputHook[0]  "thruput (bit/sec)"  ETV
vector 398  University.remoteR.eth[1].outputHook[0]  packet/sec  ETV
vector 435  University.CCTV.eth[0].inputHook[0]  "thruput (bit/sec)"  ETV
vector 436  University.CCTV.eth[0].inputHook[0]  packet/sec  ETV
64	18738 2721321 339782 170362561 5.000400085506 3027.360400085506 75560 10240 10240 773734400 7923040256000
65	2740059 3401333 339782 170362561 5.000400085506 3027.360400085506 75560 0.017080129996 0.017143463329 1290.7173325784 22.048062377764
82	6141392 2643447 339794 170362573 5.006356752172 3027.366356752172 75549 1400 1400 105768600 148076040000
83	8784839 2645753 340164 170362101 5.008376254625 3027.328376254625 75559 1400 1400 105782600 148095640000
84	11430592 3396164 339794 170362100 5.006356752172 3027.326356752172 75548 0.017665718405 0.06640161405 1343.1933556552 23.933372665228
101	14826756 18967 430056 170195666 11.574605533972 3021.16384268611 577 1 1 577 577
102	14845723 21941 430056 170195666 11.574605533972 3021.16384268611 577 671 6521274 482650443 8.3333414898076e+14
103	14867664 26280 430056 170195666 11.574605533972 3021.16384268611 577 0.07781828485 0.08426666833 45.33069369713 3.5625952376272
119	14893944 2721314 340191 170362121 5.02331995551 3027.34331995551 75559 10240 10240 773724160 7922935398400
137	17615258 3953 427337 167909498 11.486519748337 2956.058166188978 104 671 6521274 104010415 2.2410975374022e+14
138	17619211 3377 1514835 167904125 34.472266286606 2955.70217046663 103 1 1 103 103
139	17622588 4791 427337 167909498 11.486519748337 2956.058166188978 104 0.177031874508 59.842319418896 1255.4291695792 36363.025088447
140	17627379 6895 427337 167909498 11.486519748337 2956.058166188978 207 -1 0 -104 104
149	17634274 4685 3333125 169888506 65.050199986503 3001.098078217169 123 12791 4442467 91475748 1.4140544220366e+14
150	17638959 4056 3116550 169873846 63.205961419792 3000.382822014141 123 1 1 123 123
151	17643015 5673 3333125 169888506 65.050199986503 3001.098078217169 123 0.714200205364 40.382000676482 1128.7296124527 29195.053925809
152	17648688 8106 3112976 169888506 63.024421669902 3001.098078217169 246 0 1 123 123
161	17656794 4258 1049358 169797976 17.464733284654 2995.078683218429 112 4829 4826319 84794751 1.368607670166e+14
162	17661052 3692 427891 169422554 11.496742193853 2991.367829638109 112 1 1 112 112
163	17664744 5164 1049358 169797976 17.464733284654 2995.078683218429 112 0.533320171429 41.035537763368 945.62352403141 22373.717970961
164	17669908 7369 424055 169797976 11.31951096729 2995.078683218429 224 0 1 112 112
173	17677277 4699 1065066 170310179 18.544733229385 3022.65941179268 123 11759 4246712 102965101 1.6499689643894e+14
174	17681976 4032 428750 170194277 11.515237476218 3021.08596140126 123 1 1 123 123
175	17686008 5692 1065066 170310179 18.544733229385 3022.65941179268 123 0.717840288248 74.209981834236 1383.7482671244 39977.162518321
176	17691700 8103 424803 170310179 11.337997323347 3022.65941179268 246 0 1 123 123
185	17699803 4424 1027808 170175761 16.04903179875 3019.504733235385 116 5671 4337115 100381757 1.6691646155558e+14
186	17704227 3808 982322 168608185 14.790782842091 2984.903343905184 116 1 1 116 116
187	17708035 5354 1027808 170175761 16.04903179875 3019.504733235385 116 0.532314278456 70.945436137544 1297.8928665694 39806.650734939
188	17713389 7634 970047 170175761 14.61354268122 3019.504733235385 232 0 1 116 116
200	17721023 1182 1094438 169932268 21.098249940955 3004.365273687004 35 1 35 630 14910
212	17722205 1108 418561 169725531 10.948300701627 2993.362068459635 33 1 33 561 12529
224	17723313 1078 4347766 168208783 82.389560803074 2969.991985906964 32 1 32 528 11440
236	17724391 1178 3826288 168390532 69.417789450436 2975.564100025304 35 1 35 630 14910
248	17725569 1140 400432 169909016 9.609065206908 3002.582594924921 34 1 34 595 13685
260	17726709 1110 1473046 170125927 31.344517927064 3015.622584004283 33 1 33 561 12529
272	17727819 1142 394619 169902689 9.192448376793 3002.081833903698 34 1 34 595 13685
284	17728961 1112 1071418 168012862 19.021657351002 2965.608726233858 33 1 33 561 12529
296	17730073 1207 360834 168456943 6.626380984654 2980.04508464971 36 1 36 666 16206
308	17731280 1113 1064203 167950608 18.523273050495 2959.845854199374 33 1 33 561 12529
320	17732393 1173 541779 168452970 12.868641989118 2979.67886216303 35 1 35 630 14910
332	17733566 1108 2759838 169840487 47.425844800946 2997.839481667249 33 1 33 561 12529
344	17734674 1080 5712163 167947073 110.45748197699 2959.541323707144 32 1 32 528 11440
354	17735754 2721315 340282 170362300 5.028691033767 3027.348691033767 75559 1400 1400 105782600 148095640000
372	20457069 832 4152212 169868699 75 3000 40 1 40 820 22140
393	20457901 122919 358258 170218908 5.366963608888 3021.085885422221 2648 31.416923226126 9960184.2006648 3819992679.4324 1.7631932984656e+16
394	20580820 123753 358258 170218908 5.366963608888 3021.085885422221 2648 0.1402541215452 831.8368450592 320931.50375916 123155471.69271
395	20704573 121539 353106 170360317 5.029079992548 3026.149079992548 3010 231045.15538112 543249.06460425 968776056.02147 3.2093304444507e+14
396	20826112 113127 353106 170360317 5.029079992548 3026.149079992548 3010 25 812.82155751605 416028.36688295 145845531.90362
397	20939239 1107 15201131 169885589 120.02332576551 2880.94332576551 24 1.8660446517827 1.8660446517827 44.785071642786 83.570943418727
398	20940346 1179 15201131 169885589 120.02332576551 2880.94332576551 24 0.0083305564811729 0.0083305564811729 0.19993335554815 0.0016655561108643
399	20941525 117806 352924 170358812 5.02344208551 3026.023565125509 3022 2077600 2089367.2027084 6278524543.0587 1.3044298762309e+16
400	21059331 105726 352924 170358812 5.02344208551 3026.023565125509 3022 175 176 528875.97834717 92557868.378592
401	21165057 117806 352926 170358814 5.02344208551 3026.023565125509 3022 2292640 2634752 7251623913.8358 1.7410209293868e+16
402	21282863 105728 352926 170358814 5.02344208551 3026.023565125509 3022 200 1048 947991.94378747 386464736.28976
403	21388591 122852 360466 170218906 5.544325144499 3021.085885422221 2647 70.701076327148 9960184.2006648 3820022103.7314 1.7627536355282e+16
404	21511443 123708 360466 170218906 5.544325144499 3021.085885422221 2647 0.22094086352234 831.8368450592 320812.86086508 123095528.1046
405	21635151 122179 360373 170218663 5.533320477833 3021.075848755555 2637 70.701117982522 13189609.553236 4075196288.2805 2.2207487650578e+16
406	21757330 122910 360373 170218663 5.533320477833 3021.075848755555 2637 0.22094099369538 1099.1341294364 342096.6130528 154964806.97601
407	21880240 118325 352854 170360775 5.000400085506 3026.194446752176 3022 2256416 2619200 7251548048.6136 1.7409831586424e+16
408	21998565 106530 352854 170360775 5.000400085506 3026.194446752176 3022 200 1000 947946.32035389 385922097.25375
409	22105095 114884 352888 170358767 5.013376254625 3026.013376254625 3022 171136 308224 896803936 2.6615068561715e+14
410	22219979 102796 352888 170358767 5.013376254625 3026.013376254625 3022 39 51 151089 7554027
411	22322775 114884 352885 170358764 5.013376254625 3026.013376254625 3022 285600 285600 863083200 2.4649656192e+14
412	22437659 102796 352885 170358764 5.013376254625 3026.013376254625 3022 25 25 75550 1888750
413	22540455 127498 356595 170333105 5.200431418839 3022.846639009335 2747 110.41407823831 269935.96870034 107019233.48289 12561338529990
414	22667953 127052 356595 170333105 5.200431418839 3022.846639009335 2747 0.33292857326229 842.5814178003 332283.16341012 122148577.44848
415	22795005 126550 360371 170334857 5.533320477833 3022.825681686513 2718 112.33253660425 13189609.553236 4115821109.3349 2.2290132788831e+16
416	22921555 126643 360371 170334857 5.533320477833 3022.825681686513 2718 0.3191265244439 1099.1341294364 349325.82524633 156504860.09271
417	23048198 118189 352856 170360777 5.000400085506 3026.194446752176 3022 2019993.2560567 2087789.1908404 6278457135.5527 1.304403751946e+16
418	23166387 106368 352856 170360777 5.000400085506 3026.194446752176 3022 170.21024188491 175.84748161749 528845.83727969 92547424.323017
423	23272755 118189 352861 170360782 5.000400085506 3026.194446752176 3022 2019993.2560567 2087789.1908404 6278457135.5527 1.304403751946e+16
424	23390944 106368 352861 170360782 5.000400085506 3026.194446752176 3022 170.21024188491 175.84748161749 528845.83727969 92547424.323017
425	23497312 114884 352880 170358759 5.008376254625 3026.008376254625 3022 285600 285600 863083200 2.4649656192e+14
426	23612196 102796 352880 170358759 5.008376254625 3026.008376254625 3022 25 25 75550 1888750
427	23714992 114884 352893 170358772 5.018376254625 3026.018376254625 3022 171136 308224 896803936 2.6615068561715e+14
428	23829876 102796 352893 170358772 5.018376254625 3026.018376254625 3022 39 51 151089 7554027
429	23932672 126488 359488 170333883 5.444805322184 3022.737283330864 2718 112.33253660425 15895913.532862 4343895894.6637 2.4924882919522e+16
430	24059160 126563 359488 170333883 5.444805322184 3022.737283330864 2718 0.3191265244439 1329.9894111236 368348.69716413 174940161.50708
431	24185723 127653 357128 170333882 5.267443786573 3022.913651377069 2747 110.41405385578 269935.63407193 107019233.29435 12561338722640
432	24313376 127203 357128 170333882 5.267443786573 3022.913651377069 2747 0.33292860873155 842.5803732871 332283.16267844 122148579.28035
433	24440579 114884 352900 170358779 5.02331995551 3026.02331995551 3022 2077600 2077824 6278512800 1.3044249829094e+16
434	24555463 102796 352900 170358779 5.02331995551 3026.02331995551 3022 175 176 528875 92557525
435	24658259 1107 15201138 169885596 120.02333157551 2880.94333157551 24 1.8660446517827 1.8660446517827 44.785071642786 83.570943418727
436	24659366 1179 15201138 169885596 120.02333157551 2880.94333157551 24 0.0083305564811729 0.0083305564811729 0.19993335554815 0.0016655561108643
437	24660545 56807 360565 167902084 5.544733310613 2942.104733310613 1214 3.6911602561448 247981.43086379 20378445.402653 2214034055302
438	24717352 56858 360565 167902084 5.544733310613 2942.104733310613 1214 0.011534875800453 774.94197144934 63667.977038603 21621500.324223
439	24774210 57860 358436 169783156 5.367371775002 2968.64473660167 1236 5.3377267339778 9216226.1013313 720463952.52938 3.2507954335149e+15
440	24832070 57953 358436 169783156 5.367371775002 2968.64473660167 1236 0.023829137205258 768.53386273634 60391.125664732 22611483.794841
447	24890023 53064 3137319 169891953 63.024421669902 3000.207184842284 1129 4.418424092751 244785.9986553 17231421.869797 1835225830095.3
448	24943087 53151 3137319 169891953 63.024421669902 3000.207184842284 1129 0.013807575289847 764.95624579781 53829.184508086 17921473.514876
449	24996238 54356 394910 169873842 6.627541043181 2995.025871958664 1157 4.0681687615669 8562288.783258 602081641.98501 2.5832481070305e+15
450	25050594 54478 394910 169873842 6.627541043181 2995.025871958664 1157 0.018161467685567 713.56070937889 50561.553164463 17978958.461029
457	25105072 43757 451911 169790725 11.31951096729 2992.264733284654 937 3.2880659299235 162764.86484665 15619926.466096 1526607197602.6
458	25148829 43851 451911 169790725 11.31951096729 2992.264733284654 937 0.010275206031011 508.64020264578 48795.901989613 14907926.470321
459	25192680 45668 394904 169801150 6.627541043072 2994.248653793096 978 4.2714606134271 7699569.601058 550905810.83031 2.1550309134383e+15