file 47825668 1471644894                                        
version 2
run _18to20on-9-20160819-23:57:04-22082
attr configname _18to20on
attr datetime 20160819-23:57:04
attr experiment _18to20on
attr inifile omnetpp.ini
attr iterationvars $0=18
attr iterationvars2 "$0=18, $repetition=9"
attr measurement $0=18
attr network University
attr processid 22082
attr repetition 9
attr replication #9
attr resultdir results
attr runnumber 9
attr seedset 9

vector 82  University.profLaptop.udpApp[0]  rcvdPk:vector(packetBytes)  ETV
attr interpolationmode  none
attr source  rcvdPk
attr title  "packets received, vector(packetBytes)"
vector 84  University.profLaptop.udpApp[0]  rcvdPkLifetime:vector  ETV
attr interpolationmode  none
attr source  messageAge(rcvdPk)
attr title  "received packet lifetime, vector"
attr unit  s
vector 64  University.ccTVMonitoringHost.udpApp[0]  rcvdPk:vector(packetBytes)  ETV
attr interpolationmode  none
attr source  rcvdPk
attr title  "packets received, vector(packetBytes)"
vector 65  University.ccTVMonitoringHost.udpApp[0]  endToEndDelay:vector  ETV
attr interpolationmode  none
attr source  messageAge(rcvdPk)
attr title  "end-to-end delay, vector"
attr unit  s
vector 83  University.profLaptop.udpApp[0]  sentPk:vector(packetBytes)  ETV
attr interpolationmode  none
attr source  sentPk
attr title  "packets sent, vector(packetBytes)"
vector 354  University.whostVideoConf.udpApp[0]  sentPk:vector(packetBytes)  ETV
attr interpolationmode  none
attr source  sentPk
attr title  "packets sent, vector(packetBytes)"
vector 119  University.CCTV.udpApp[0]  sentPk:vector(packetBytes)  ETV
attr interpolationmode  none
attr source  sentPk
attr title  "packets sent, vector(packetBytes)"
vector 149  University.whttpStudents[1].tcpApp[0]  rcvdPk:vector(packetBytes)  ETV
attr interpolationmode  none
attr source  rcvdPk
attr title  "packets received, vector(packetBytes)"
vector 151  University.whttpStudents[1].tcpApp[0]  endToEndDelay:vector  ETV
attr interpolationmode  none
attr source  messageAge(rcvdPk)
attr title  "end-to-end delay, vector"
attr unit  s
vector 152  University.whttpStudents[1].tcpApp[0]  numActiveSessions:vector  ETV
attr interpolationmode  sample-hold
attr source  sum(connect)
attr title  "number of active sessions, vector"
vector 200  University.whttpStudents[5].tcpApp[0]  numActiveSessions:vector  ETV
attr interpolationmode  sample-hold
attr source  sum(connect)
attr title  "number of active sessions, vector"
vector 407  University.mainR.ppp[0].inputHook[0]  "thruput (bit/sec)"  ETV
vector 408  University.mainR.ppp[0].inputHook[0]  packet/sec  ETV
vector 417  University.mainR.ppp[3].outputHook[0]  "thruput (bit/sec)"  ETV
vector 418  University.mainR.ppp[3].outputHook[0]  packet/sec  ETV
vector 423  University.ccTVMonitoringHost.ppp[0].inputHook[0]  "thruput (bit/sec)"  ETV
vector 424  University.ccTVMonitoringHost.ppp[0].inputHook[0]  packet/sec  ETV
vector 425  University.profLaptop.ppp[0].outputHook[0]  "thruput (bit/sec)"  ETV
vector 426  University.profLaptop.ppp[0].outputHook[0]  packet/sec  ETV
vector 411  University.mainR.ppp[1].inputHook[0]  "thruput (bit/sec)"  ETV
vector 412  University.mainR.ppp[1].inputHook[0]  packet/sec  ETV
vector 409  University.mainR.ppp[1].outputHook[0]  "thruput (bit/sec)"  ETV
vector 410  University.mainR.ppp[1].outputHook[0]  packet/sec  ETV
vector 617  University.whostVideoConf.wlan[0].outputHook[0]  "thruput (bit/sec)"  ETV
vector 618  University.whostVideoConf.wlan[0].outputHook[0]  packet/sec  ETV
vector 639  University.accessPoint.wlan[0].inputHook[0]  "thruput (bit/sec)"  ETV
vector 640  University.accessPoint.wlan[0].inputHook[0]  packet/sec  ETV
vector 647  University.accessPoint.eth[0].outputHook[0]  "thruput (bit/sec)"  ETV
vector 648  University.accessPoint.eth[0].outputHook[0]  packet/sec  ETV
vector 395  University.remoteR.eth[0].inputHook[0]  "thruput (bit/sec)"  ETV
vector 396  University.remoteR.eth[0].inputHook[0]  packet/sec  ETV
vector 401  University.remoteR.ppp[0].outputHook[0]  "thruput (bit/sec)"  ETV
vector 402  University.remoteR.ppp[0].outputHook[0]  packet/sec  ETV
vector 427  University.profLaptop.ppp[0].inputHook[0]  "thruput (bit/sec)"  ETV
vector 428  University.profLaptop.ppp[0].inputHook[0]  packet/sec  ETV
vector 433  University.CCTV.eth[0].outputHook[0]  "thruput (bit/sec)"  ETV
vector 434  University.CCTV.eth[0].outputHook[0]  packet/sec  ETV
vector 399  University.remoteR.eth[1].inputHook[0]  "thruput (bit/sec)"  ETV
vector 400  University.remoteR.eth[1].inputHook[0]  packet/sec  ETV
vector 413  University.mainR.ppp[2].outputHook[0]  "thruput (bit/sec)"  ETV
vector 414  University.mainR.ppp[2].outputHook[0]  packet/sec  ETV
vector 431  University.Server.ppp[0].inputHook[0]  "thruput (bit/sec)"  ETV
vector 432  University.Server.ppp[0].inputHook[0]  packet/sec  ETV
vector 415  University.mainR.ppp[2].inputHook[0]  "thruput (bit/sec)"  ETV
vector 416  University.mainR.ppp[2].inputHook[0]  packet/sec  ETV
vector 393  University.remoteR.eth[0].outputHook[0]  "thruput (bit/sec)"  ETV
vector 394  University.remoteR.eth[0].outputHook[0]  packet/sec  ETV
vector 649  University.accessPoint.eth[0].inputHook[0]  "thruput (bit/sec)"  ETV
vector 650  University.accessPoint.eth[0].inputHook[0]  packet/sec  ETV
vector 637  University.accessPoint.wlan[0].outputHook[0]  "thruput (bit/sec)"  ETV
vector 638  University.accessPoint.wlan[0].outputHook[0]  packet/sec  ETV
vector 439  University.whttpStudents[0].wlan[0].inputHook[0]  "thruput (bit/sec)"  ETV
vector 440  University.whttpStudents[0].wlan[0].inputHook[0]  packet/sec  ETV
vector 437  University.whttpStudents[0].wlan[0].outputHook[0]  "thruput (bit/sec)"  ETV
vector 438  University.whttpStudents[0].wlan[0].outputHook[0]  packet/sec  ETV
vector 429  University.Server.ppp[0].outputHook[0]  "thruput (bit/sec)"  ETV
vector 430  University.Server.ppp[0].outputHook[0]  packet/sec  ETV
vector 405  University.mainR.ppp[0].outputHook[0]  "thruput (bit/sec)"  ETV
vector 406  University.mainR.ppp[0].outputHook[0]  packet/sec  ETV
vector 403  University.remoteR.ppp[0].inputHook[0]  "thruput (bit/sec)"  ETV
vector 404  University.remoteR.ppp[0].inputHook[0]  packet/sec  ETV
vector 188  University.whttpStudents[4].tcpApp[0]  numActiveSessions:vector  ETV
attr interpolationmode  sample-hold
attr source  sum(connect)
attr title  "number of active sessions, vector"
vector 186  University.whttpStudents[4].tcpApp[0]  sentPk:vector(packetBytes)  ETV
attr interpolationmode  none
attr source  sentPk
attr title  "packets sent, vector(packetBytes)"
vector 101  University.Server.tcpApp[0]  rcvdPk:vector(packetBytes)  ETV
attr interpolationmode  none
attr source  rcvdPk
attr title  "packets received, vector(packetBytes)"
vector 103  University.Server.tcpApp[0]  endToEndDelay:vector  ETV
attr interpolationmode  none
attr source  messageAge(rcvdPk)
attr title  "end-to-end delay, vector"
attr unit  s
vector 102  University.Server.tcpApp[0]  sentPk:vector(packetBytes)  ETV
attr interpolationmode  none
attr source  sentPk
attr title  "packets sent, vector(packetBytes)"
vector 185  University.whttpStudents[4].tcpApp[0]  rcvdPk:vector(packetBytes)  ETV
attr interpolationmode  none
attr source  rcvdPk
attr title  "packets received, vector(packetBytes)"
vector 187  University.whttpStudents[4].tcpApp[0]  endToEndDelay:vector  ETV
attr interpolationmode  none
attr source  messageAge(rcvdPk)
attr title  "end-to-end delay, vector"
attr unit  s
vector 164  University.whttpStudents[2].tcpApp[0]  numActiveSessions:vector  ETV
attr interpolationmode  sample-hold
attr source  sum(connect)
attr title  "number of active sessions, vector"
vector 559  University.whttpStudents[12].wlan[0].inputHook[0]  "thruput (bit/sec)"  ETV
vector 560  University.whttpStudents[12].wlan[0].inputHook[0]  packet/sec  ETV
vector 549  University.whttpStudents[11].wlan[0].inputHook[0]  "thruput (bit/sec)"  ETV
vector 550  University.whttpStudents[11].wlan[0].inputHook[0]  packet/sec  ETV
vector 579  University.whttpStudents[14].wlan[0].inputHook[0]  "thruput (bit/sec)"  ETV
vector 580  University.whttpStudents[14].wlan[0].inputHook[0]  packet/sec  ETV
vector 519  University.whttpStudents[8].wlan[0].inputHook[0]  "thruput (bit/sec)"  ETV
vector 520  University.whttpStudents[8].wlan[0].inputHook[0]  packet/sec  ETV
vector 589  University.whttpStudents[15].wlan[0].inputHook[0]  "thruput (bit/sec)"  ETV
vector 590  University.whttpStudents[15].wlan[0].inputHook[0]  packet/sec  ETV
vector 569  University.whttpStudents[13].wlan[0].inputHook[0]  "thruput (bit/sec)"  ETV
vector 570  University.whttpStudents[13].wlan[0].inputHook[0]  packet/sec  ETV
vector 489  University.whttpStudents[5].wlan[0].inputHook[0]  "thruput (bit/sec)"  ETV
vector 490  University.whttpStudents[5].wlan[0].inputHook[0]  packet/sec  ETV
vector 499  University.whttpStudents[6].wlan[0].inputHook[0]  "thruput (bit/sec)"  ETV
vector 500  University.whttpStudents[6].wlan[0].inputHook[0]  packet/sec  ETV
vector 449  University.whttpStudents[1].wlan[0].inputHook[0]  "thruput (bit/sec)"  ETV
vector 450  University.whttpStudents[1].wlan[0].inputHook[0]  packet/sec  ETV
vector 609  University.whttpStudents[17].wlan[0].inputHook[0]  "thruput (bit/sec)"  ETV
vector 610  University.whttpStudents[17].wlan[0].inputHook[0]  packet/sec  ETV
vector 479  University.whttpStudents[4].wlan[0].inputHook[0]  "thruput (bit/sec)"  ETV
vector 480  University.whttpStudents[4].wlan[0].inputHook[0]  packet/sec  ETV
vector 469  University.whttpStudents[3].wlan[0].inputHook[0]  "thruput (bit/sec)"  ETV
vector 470  University.whttpStudents[3].wlan[0].inputHook[0]  packet/sec  ETV
vector 619  University.whostVideoConf.wlan[0].inputHook[0]  "thruput (bit/sec)"  ETV
vector 620  University.whostVideoConf.wlan[0].inputHook[0]  packet/sec  ETV
vector 629  University.whostFTP.wlan[0].inputHook[0]  "thruput (bit/sec)"  ETV
vector 630  University.whostFTP.wlan[0].inputHook[0]  packet/sec  ETV
vector 539  University.whttpStudents[10].wlan[0].inputHook[0]  "thruput (bit/sec)"  ETV
vector 540  University.whttpStudents[10].wlan[0].inputHook[0]  packet/sec  ETV
vector 509  University.whttpStudents[7].wlan[0].inputHook[0]  "thruput (bit/sec)"  ETV
vector 510  University.whttpStudents[7].wlan[0].inputHook[0]  packet/sec  ETV
vector 529  University.whttpStudents[9].wlan[0].inputHook[0]  "thruput (bit/sec)"  ETV
vector 530  University.whttpStudents[9].wlan[0].inputHook[0]  packet/sec  ETV
vector 599  University.whttpStudents[16].wlan[0].inputHook[0]  "thruput (bit/sec)"  ETV
vector 600  University.whttpStudents[16].wlan[0].inputHook[0]  packet/sec  ETV
vector 487  University.whttpStudents[5].wlan[0].outputHook[0]  "thruput (bit/sec)"  ETV
vector 488  University.whttpStudents[5].wlan[0].outputHook[0]  packet/sec  ETV
vector 137  University.whttpStudents[0].tcpApp[0]  rcvdPk:vector(packetBytes)  ETV
attr interpolationmode  none
attr source  rcvdPk
attr title  "packets received, vector(packetBytes)"
vector 139  University.whttpStudents[0].tcpApp[0]  endToEndDelay:vector  ETV
attr interpolationmode  none
attr source  messageAge(rcvdPk)
attr title  "end-to-end delay, vector"
attr unit  s
vector 140  University.whttpStudents[0].tcpApp[0]  numActiveSessions:vector  ETV
attr interpolationmode  sample-hold
attr source  sum(connect)
attr title  "number of active sessions, vector"
vector 457  University.whttpStudents[2].wlan[0].outputHook[0]  "thruput (bit/sec)"  ETV
vector 458  University.whttpStudents[2].wlan[0].outputHook[0]  packet/sec  ETV
vector 459  University.whttpStudents[2].wlan[0].inputHook[0]  "thruput (bit/sec)"  ETV
vector 460  University.whttpStudents[2].wlan[0].inputHook[0]  packet/sec  ETV
vector 162  University.whttpStudents[2].tcpApp[0]  sentPk:vector(packetBytes)  ETV
attr interpolationmode  none
attr source  sentPk
attr title  "packets sent, vector(packetBytes)"
vector 161  University.whttpStudents[2].tcpApp[0]  rcvdPk:vector(packetBytes)  ETV
attr interpolationmode  none
attr source  rcvdPk
attr title  "packets received, vector(packetBytes)"
vector 163  University.whttpStudents[2].tcpApp[0]  endToEndDelay:vector  ETV
attr interpolationmode  none
attr source  messageAge(rcvdPk)
attr title  "end-to-end delay, vector"
attr unit  s
vector 477  University.whttpStudents[4].wlan[0].outputHook[0]  "thruput (bit/sec)"  ETV
vector 478  University.whttpStudents[4].wlan[0].outputHook[0]  packet/sec  ETV
vector 527  University.whttpStudents[9].wlan[0].outputHook[0]  "thruput (bit/sec)"  ETV
vector 528  University.whttpStudents[9].wlan[0].outputHook[0]  packet/sec  ETV
vector 597  University.whttpStudents[16].wlan[0].outputHook[0]  "thruput (bit/sec)"  ETV
vector 598  University.whttpStudents[16].wlan[0].outputHook[0]  packet/sec  ETV
vector 260  University.whttpStudents[10].tcpApp[0]  numActiveSessions:vector  ETV
attr interpolationmode  sample-hold
attr source  sum(connect)
attr title  "number of active sessions, vector"
vector 236  University.whttpStudents[8].tcpApp[0]  numActiveSessions:vector  ETV
attr interpolationmode  sample-hold
attr source  sum(connect)
attr title  "number of active sessions, vector"
vector 150  University.whttpStudents[1].tcpApp[0]  sentPk:vector(packetBytes)  ETV
attr interpolationmode  none
attr source  sentPk
attr title  "packets sent, vector(packetBytes)"
vector 537  University.whttpStudents[10].wlan[0].outputHook[0]  "thruput (bit/sec)"  ETV
vector 538  University.whttpStudents[10].wlan[0].outputHook[0]  packet/sec  ETV
vector 296  University.whttpStudents[13].tcpApp[0]  numActiveSessions:vector  ETV
attr interpolationmode  sample-hold
attr source  sum(connect)
attr title  "number of active sessions, vector"
vector 517  University.whttpStudents[8].wlan[0].outputHook[0]  "thruput (bit/sec)"  ETV
vector 518  University.whttpStudents[8].wlan[0].outputHook[0]  packet/sec  ETV
vector 176  University.whttpStudents[3].tcpApp[0]  numActiveSessions:vector  ETV
attr interpolationmode  sample-hold
attr source  sum(connect)
attr title  "number of active sessions, vector"
vector 174  University.whttpStudents[3].tcpApp[0]  sentPk:vector(packetBytes)  ETV
attr interpolationmode  none
attr source  sentPk
attr title  "packets sent, vector(packetBytes)"
vector 173  University.whttpStudents[3].tcpApp[0]  rcvdPk:vector(packetBytes)  ETV
attr interpolationmode  none
attr source  rcvdPk
attr title  "packets received, vector(packetBytes)"
vector 175  University.whttpStudents[3].tcpApp[0]  endToEndDelay:vector  ETV
attr interpolationmode  none
attr source  messageAge(rcvdPk)
attr title  "end-to-end delay, vector"
attr unit  s
vector 447  University.whttpStudents[1].wlan[0].outputHook[0]  "thruput (bit/sec)"  ETV
vector 448  University.whttpStudents[1].wlan[0].outputHook[0]  packet/sec  ETV
vector 284  University.whttpStudents[12].tcpApp[0]  numActiveSessions:vector  ETV
attr interpolationmode  sample-hold
attr source  sum(connect)
attr title  "number of active sessions, vector"
vector 567  University.whttpStudents[13].wlan[0].outputHook[0]  "thruput (bit/sec)"  ETV
vector 568  University.whttpStudents[13].wlan[0].outputHook[0]  packet/sec  ETV
vector 557  University.whttpStudents[12].wlan[0].outputHook[0]  "thruput (bit/sec)"  ETV
vector 558  University.whttpStudents[12].wlan[0].outputHook[0]  packet/sec  ETV
vector 627  University.whostFTP.wlan[0].outputHook[0]  "thruput (bit/sec)"  ETV
vector 628  University.whostFTP.wlan[0].outputHook[0]  packet/sec  ETV
vector 467  University.whttpStudents[3].wlan[0].outputHook[0]  "thruput (bit/sec)"  ETV
vector 468  University.whttpStudents[3].wlan[0].outputHook[0]  packet/sec  ETV
vector 607  University.whttpStudents[17].wlan[0].outputHook[0]  "thruput (bit/sec)"  ETV
vector 608  University.whttpStudents[17].wlan[0].outputHook[0]  packet/sec  ETV
vector 320  University.whttpStudents[15].tcpApp[0]  numActiveSessions:vector  ETV
attr interpolationmode  sample-hold
attr source  sum(connect)
attr title  "number of active sessions, vector"
vector 138  University.whttpStudents[0].tcpApp[0]  sentPk:vector(packetBytes)  ETV
attr interpolationmode  none
attr source  sentPk
attr title  "packets sent, vector(packetBytes)"
vector 587  University.whttpStudents[15].wlan[0].outputHook[0]  "thruput (bit/sec)"  ETV
vector 588  University.whttpStudents[15].wlan[0].outputHook[0]  packet/sec  ETV
vector 308  University.whttpStudents[14].tcpApp[0]  numActiveSessions:vector  ETV
attr interpolationmode  sample-hold
attr source  sum(connect)
attr title  "number of active sessions, vector"
vector 272  University.whttpStudents[11].tcpApp[0]  numActiveSessions:vector  ETV
attr interpolationmode  sample-hold
attr source  sum(connect)
attr title  "number of active sessions, vector"
vector 212  University.whttpStudents[6].tcpApp[0]  numActiveSessions:vector  ETV
attr interpolationmode  sample-hold
attr source  sum(connect)
attr title  "number of active sessions, vector"
vector 577  University.whttpStudents[14].wlan[0].outputHook[0]  "thruput (bit/sec)"  ETV
vector 578  University.whttpStudents[14].wlan[0].outputHook[0]  packet/sec  ETV
vector 547  University.whttpStudents[11].wlan[0].outputHook[0]  "thruput (bit/sec)"  ETV
vector 548  University.whttpStudents[11].wlan[0].outputHook[0]  packet/sec  ETV
vector 497  University.whttpStudents[6].wlan[0].outputHook[0]  "thruput (bit/sec)"  ETV
vector 498  University.whttpStudents[6].wlan[0].outputHook[0]  packet/sec  ETV
vector 224  University.whttpStudents[7].tcpApp[0]  numActiveSessions:vector  ETV
attr interpolationmode  sample-hold
attr source  sum(connect)
attr title  "number of active sessions, vector"
vector 507  University.whttpStudents[7].wlan[0].outputHook[0]  "thruput (bit/sec)"  ETV
vector 508  University.whttpStudents[7].wlan[0].outputHook[0]  packet/sec  ETV
vector 372  University.whostFTP.tcpApp[0]  numActiveSessions:vector  ETV
attr interpolationmode  sample-hold
attr source  sum(connect)
attr title  "number of active sessions, vector"
vector 248  University.whttpStudents[9].tcpApp[0]  numActiveSessions:vector  ETV
attr interpolationmode  sample-hold
attr source  sum(connect)
attr title  "number of active sessions, vector"
vector 344  University.whttpStudents[17].tcpApp[0]  numActiveSessions:vector  ETV
attr interpolationmode  sample-hold
attr source  sum(connect)
attr title  "number of active sessions, vector"
vector 332  University.whttpStudents[16].tcpApp[0]  numActiveSessions:vector  ETV
attr interpolationmode  sample-hold
attr source  sum(connect)
attr title  "number of active sessions, vector"
vector 397  University.remoteR.eth[1].outputHook[0]  "thruput (bit/sec)"  ETV
vector 398  University.remoteR.eth[1].outputHook[0]  packet/sec  ETV
vector 435  University.CCTV.eth[0].inputHook[0]  "thruput (bit/sec)"  ETV
vector 436  University.CCTV.eth[0].inputHook[0]  packet/sec  ETV
64	18738 2794417 651332 241952421 5.007195877145 3093.287195877145 77208 10240 10240 790609920 8095845580800
65	2813155 3489225 651332 241952421 5.007195877145 3093.287195877145 77208 0.017080129996 0.019481330894 1319.3282129184 22.54499804894
82	6302380 2716285 649668 241952369 5.002327245061 3093.282327245061 77207 1400 1400 108089800 151325720000
83	9018665 2717288 655822 241952454 5.019965214626 3093.299965214626 77208 1400 1400 108091200 151327680000
84	11735953 3487448 649668 241952369 5.002327245061 3093.282327245061 77207 0.016345626393 0.173920728526 1283.4609410063 21.615237373246
101	15223401 27675 710287 241873378 6.407638567487 3092.247575900821 835 1 1 835 835
102	15251076 32020 710287 241873378 6.407638567487 3092.247575900821 835 125 6381026 734771382 1.244354776279e+15
103	15283096 38373 710287 241873378 6.407638567487 3092.247575900821 835 0.01112258086 0.019511181044 10.040443553224 0.12313509670349
119	15321469 2871666 656225 241951506 5.030115747149 3093.270115747149 77207 10240 10240 790599680 8095740723200
137	18193135 6464 1050485 241716050 8.832675666212 3089.688045823027 169 4826 4106048 140140882 2.1124827526603e+14
138	18199599 5553 2139242 240843426 27.199075973696 3083.172538821545 168 1 1 168 168
139	18205152 7778 1050485 241716050 8.832675666212 3089.688045823027 169 0.109478993178 16.846790530643 649.30910721725 4536.5851867968
140	18212930 11305 1050485 241716050 8.832675666212 3089.688045823027 337 -1 0 -169 169
149	18224235 6857 665739 238274375 5.062266133171 3042.884149166065 179 125 5351767 173657193 3.2689183035714e+14
150	18231092 5930 1624609 241495524 14.122564364342 3088.876712112915 179 1 1 179 179
151	18237022 8246 665739 238274375 5.062266133171 3042.884149166065 179 0.035331020581 16.401410346666 737.6874995065 5439.8802868866
152	18245268 12012 665739 241493267 5.062266133171 3088.838624997861 358 -1 0 -179 179
161	18257280 6274 1138520 241915116 9.576701378274 3092.523850563225 164 148 6381026 147065333 2.6942771563675e+14
162	18263554 5433 1056103 241871283 9.168124106888 3092.231265318089 164 1 1 164 164
163	18268987 7551 1138520 241915116 9.576701378274 3092.523850563225 164 0.040441369461 16.698596285827 638.65975811582 4641.6459425874
164	18276538 10847 985643 241915116 8.132375761753 3092.523850563225 328 0 1 164 164
173	18287385 5930 1850307 241833641 16.78115237515 3091.48761505891 155 2035 3767041 128819481 2.0021956848874e+14
174	18293315 5144 1696790 241805012 16.261497862763 3091.261927114912 155 1 1 155 155
175	18298459 7138 1850307 241833641 16.78115237515 3091.48761505891 155 0.082062168116 16.297360109046 569.18992624359 3997.9537212172
176	18305597 10271 1693121 241833641 16.227352584322 3091.48761505891 310 0 1 155 155
185	18315868 6438 736898 241165691 6.653066424062 3085.072322964389 168 2964 3967904 143953864 2.3535950056954e+14
186	18322306 5604 709661 241232445 6.394493394336 3087.208145442118 169 1 1 169 169
187	18327910 7739 736898 241165691 6.653066424062 3085.072322964389 168 0.072962867924 19.156231420323 634.31810335993 4679.7923520585
188	18335649 11164 707626 241230785 6.358224296448 3087.174000165363 337 0 1 169 169
200	18346813 1145 686386 234492718 5.690577289131 3003.17445476787 34 1 34 595 13685
212	18347958 1185 3338023 236337202 45.228017348526 3030.912037914187 35 1 35 630 14910
224	18349143 1152 4428090 238388719 51.585394605397 3052.982603049136 34 1 34 595 13685
236	18350295 1218 1595547 241058222 12.756134176033 3084.19568091431 36 1 36 666 16206
248	18351513 1189 7013372 238344551 79.274738729348 3048.865113671498 35 1 35 630 14910
260	18352702 1183 1473746 235375028 11.905714180267 3022.837413910934 35 1 35 630 14910
272	18353885 1110 3256965 234880257 43.051543158492 3016.549417145259 33 1 33 561 12529
284	18354995 1185 1866541 236021214 17.784071746522 3028.443231247383 35 1 35 630 14910
296	18356180 1178 1669489 238396227 15.306789382288 3053.666401135647 35 1 35 630 14910
308	18357358 1184 3234588 239185380 42.332840125495 3068.47484214852 35 1 35 630 14910
320	18358542 1185 2135766 241170146 26.963268148876 3085.170680326157 35 1 35 630 14910
332	18359727 1155 10043017 238411539 104.61970594604 3055.074972168444 34 1 34 595 13685
344	18360882 1153 7957612 239921122 89.333464159254 3076.338838826002 34 1 34 595 13685
354	18362035 2794459 655961 241951314 5.025981618668 3093.265981618668 77207 1400 1400 108089800 151325720000
372	21156494 861 6967945 239854642 75 3075 41 1 41 861 23821
393	21157355 94996 702114 241949243 5.192267503359 3092.193272170025 2188 47.383656749959 11508798.103183 5775402774.5322 3.1536297908784e+16
394	21252351 91334 702114 241949243 5.192267503359 3092.193272170025 2188 0.14807392734362 959.06650859862 484625.20022465 221193451.78388
395	21343685 125896 697100 241928487 5.026370578395 3091.754097163702 3079 277695.33429818 588418.63329702 1045214240.3817 3.6937989462119e+14
396	21469581 117942 697100 241928487 5.026370578395 3091.754097163702 3079 25 943.35339505611 594520.87161405 254955018.44004
397	21587523 1135 18893211 234469572 120.030121557149 2880.950121557149 24 1.8660446517827 1.8660446517827 44.785071642786 83.570943418727
398	21588658 1207 18893211 234469572 120.030121557149 2880.950121557149 24 0.0083305564811729 0.0083305564811729 0.19993335554815 0.0016655561108643
399	21589865 121050 697201 241942094 5.030237877149 3092.030360917148 3088 2077600 2089367.2027084 6415646143.0587 1.3329182598469e+16
400	21710915 108706 697201 241942094 5.030237877149 3092.030360917148 3088 175 176 540425.97834717 94579118.378592
401	21819621 121066 697102 241942096 5.026370578395 3092.030360917148 3088 2363200 2661408 7464000603.0152 1.8055708292824e+16
402	21940687 108794 697102 241942096 5.026370578395 3092.030360917148 3088 200 1117 1137034.1680366 560207654.96784
403	22049481 94958 704536 241949241 5.272267503359 3092.193272170025 2187 47.383656749959 11508798.103183 5772747467.5227 3.1519566235177e+16
404	22144439 91287 704536 241949241 5.272267503359 3092.193272170025 2187 0.14807392734362 959.06650859862 484281.32257688 220989526.41401
405	22235726 94037 704239 241950014 5.261262836693 3092.181503956693 2182 47.383675460056 13818431.022499 6381445464.1325 3.9903427138189e+16
406	22329763 89970 704239 241950014 5.261262836693 3092.181503956693 2182 0.14807398581267 1153.9638424667 535049.22747124 279539515.82993
407	22419733 122577 696845 241901890 5.001242543815 3091.487195877145 3087 2296755.577683 2672791.9592214 7461646813.2587 1.8050319977167e+16
408	22542310 111083 696845 241901890 5.001242543815 3091.487195877145 3087 198.59528154597 1117.9118990853 1136662.6879185 559416437.1773
409	22653393 117946 696978 241941861 5.024965214626 3092.024965214626 3088 285376 296800 916506976 2.7201601034138e+14
410	22771339 105594 696978 241941861 5.024965214626 3092.024965214626 3088 49 50 154399 7719901
411	22876933 117946 696975 241941858 5.024965214626 3092.024965214626 3088 285600 285600 881932800 2.5188000768e+14
412	22994879 105594 696975 241941858 5.024965214626 3092.024965214626 3088 25 25 77200 1930000
413	23100473 107429 701783 241948605 5.167258543811 3092.167258543811 2553 151.25569227561 296512 161419454.4746 23021181546852
414	23207902 103993 701783 241948605 5.167258543811 3092.167258543811 2553 0.35450552877097 924 502286.1833188 223915301.98069
415	23311895 110495 701819 241950012 5.181383396693 3092.181503956693 2539 83.190630751588 13921278.867312 6503719777.4465 3.9903329348652e+16
416	23422390 106381 701819 241950012 5.181383396693 3092.181503956693 2539 0.23633701918065 1165.9302237538 549212.1963874 281113590.74918
417	23528771 122300 696847 241901892 5.001242543815 3091.487195877145 3087 2019993.2560567 2089565.1739131 6413633267.5665 1.3325181684167e+16
418	23651071 110746 696847 241901892 5.001242543815 3091.487195877145 3087 170.21024188491 175.9970667155 540231.82354231 94542086.149934
423	23761817 122300 696852 241901897 5.001242543815 3091.487195877145 3087 2019993.2560567 2089565.1739131 6413633267.5665 1.3325181684167e+16
424	23884117 110746 696852 241901897 5.001242543815 3091.487195877145 3087 170.21024188491 175.9970667155 540231.82354231 94542086.149934
425	23994863 117946 696956 241941826 5.019965214626 3092.019965214626 3088 285600 285600 881932800 2.5188000768e+14
426	24112809 105594 696956 241941826 5.019965214626 3092.019965214626 3088 25 25 77200 1930000
427	24218403 117946 697170 241942054 5.029965214626 3092.029965214626 3088 285376 296800 916506976 2.7201601034138e+14
428	24336349 105594 697170 241942054 5.029965214626 3092.029965214626 3088 49 50 154399 7719901
429	24441943 110267 702961 241949990 5.207543820822 3092.207549794155 2538 83.190630751588 21106560 6786837727.717 4.4345643664424e+16
430	24552210 106027 702961 241949990 5.207543820822 3092.207549794155 2538 0.23633701918065 1763 572823.12518034 312199446.69321
431	24658237 107409 701799 241948621 5.167575154155 3092.167575154155 2553 151.25569227561 296512 161419468.02706 23021186026724
432	24765646 103989 701799 241948621 5.167575154155 3092.167575154155 2553 0.35450552877097 924 502286.22551934 223915345.48194
433	24869635 121034 697177 241942061 5.030115747149 3092.030115747149 3088 2077600 2077824 6415634400 1.3329133665254e+16
434	24990669 108682 697177 241942061 5.030115747149 3092.030115747149 3088 175 176 540425 94578775
435	25099351 1135 18893218 234469579 120.030127367149 2880.950127367149 24 1.8660446517827 1.8660446517827 44.785071642786 83.570943418727
436	25100486 1207 18893218 234469579 120.030127367149 2880.950127367149 24 0.0083305564811729 0.0083305564811729 0.19993335554815 0.0016655561108643
437	25101693 29926 702203 241561259 5.192675666212 3088.157823228372 678 16.604155296117 291457.66629662 25604134.718811 3048194353531.1
438	25131619 29490 702203 241561259 5.192675666212 3088.157823228372 678 0.051887985300367 910.80520717693 79992.723475252 29750815.126519
439	25161109 33326 702199 241561255 5.192675666212 3088.195752332876 745 3.4752306776331 10931954.68406 969664964.52771 4.350030917985e+15
440	25194435 32716 702199 241561255 5.192675666212 3088.195752332876 745 0.015514422668005 911.62263103508 81244.578208553 30460166.518397
447	25227151 34133 1861272 241934666 14.088419091117 3091.873680326863 772 17.605415462381 289365.54568226 32872417.500461 4230978178510.1
448	25261284 33615 1861272 241934666 14.088419091117 3091.873680326863 772 0.05501692331994 904.26733025705 102701.03610937 41297322.058301
449	25294899 37415 1007661 241936621 6.359384351891 3091.913680326863 835 4.6837740911518 10826264.577109 1233543268.5929 5.8583595394622e+15
450	25332314 36691 1007661 241936621 6.359384351891 3091.913680326863 835 0.02090970576407 902.68399270201 103311.83271636 40985783.579923
457	25369005 30335 1054830 241869037 8.132375761753 3078.959460583674 677 12.912900853589 287677.89897323 27207813.498376 3649334922172.8
458	25399340 29975 1054830 241869037 8.132375761753 3078.959460583674 677 0.040352815167467 898.99343429135 85004.461707181 35622354.927179
459	25429315 33722 1055234 241871279 5.691737342761 3088.876208063795 747 5.2311563246686 10787921.211496 1031923025.0353 5.1482575893151e+15