file 48724808 1471642671                                        
version 2
run _18to20on-0-20160819-23:15:38-21448
attr configname _18to20on
attr datetime 20160819-23:15:38
attr experiment _18to20on
attr inifile omnetpp.ini
attr iterationvars $0=18
attr iterationvars2 "$0=18, $repetition=0"
attr measurement $0=18
attr network University
attr processid 21448
attr repetition 0
attr replication #0
attr resultdir results
attr runnumber 0
attr seedset 0

vector 354  University.whostVideoConf.udpApp[0]  sentPk:vector(packetBytes)  ETV
attr interpolationmode  none
attr source  sentPk
attr title  "packets sent, vector(packetBytes)"
vector 64  University.ccTVMonitoringHost.udpApp[0]  rcvdPk:vector(packetBytes)  ETV
attr interpolationmode  none
attr source  rcvdPk
attr title  "packets received, vector(packetBytes)"
vector 65  University.ccTVMonitoringHost.udpApp[0]  endToEndDelay:vector  ETV
attr interpolationmode  none
attr source  messageAge(rcvdPk)
attr title  "end-to-end delay, vector"
attr unit  s
vector 82  University.profLaptop.udpApp[0]  rcvdPk:vector(packetBytes)  ETV
attr interpolationmode  none
attr source  rcvdPk
attr title  "packets received, vector(packetBytes)"
vector 84  University.profLaptop.udpApp[0]  rcvdPkLifetime:vector  ETV
attr interpolationmode  none
attr source  messageAge(rcvdPk)
attr title  "received packet lifetime, vector"
attr unit  s
vector 83  University.profLaptop.udpApp[0]  sentPk:vector(packetBytes)  ETV
attr interpolationmode  none
attr source  sentPk
attr title  "packets sent, vector(packetBytes)"
vector 119  University.CCTV.udpApp[0]  sentPk:vector(packetBytes)  ETV
attr interpolationmode  none
attr source  sentPk
attr title  "packets sent, vector(packetBytes)"
vector 427  University.profLaptop.ppp[0].inputHook[0]  "thruput (bit/sec)"  ETV
vector 428  University.profLaptop.ppp[0].inputHook[0]  packet/sec  ETV
vector 407  University.mainR.ppp[0].inputHook[0]  "thruput (bit/sec)"  ETV
vector 408  University.mainR.ppp[0].inputHook[0]  packet/sec  ETV
vector 417  University.mainR.ppp[3].outputHook[0]  "thruput (bit/sec)"  ETV
vector 418  University.mainR.ppp[3].outputHook[0]  packet/sec  ETV
vector 423  University.ccTVMonitoringHost.ppp[0].inputHook[0]  "thruput (bit/sec)"  ETV
vector 424  University.ccTVMonitoringHost.ppp[0].inputHook[0]  packet/sec  ETV
vector 617  University.whostVideoConf.wlan[0].outputHook[0]  "thruput (bit/sec)"  ETV
vector 618  University.whostVideoConf.wlan[0].outputHook[0]  packet/sec  ETV
vector 639  University.accessPoint.wlan[0].inputHook[0]  "thruput (bit/sec)"  ETV
vector 640  University.accessPoint.wlan[0].inputHook[0]  packet/sec  ETV
vector 647  University.accessPoint.eth[0].outputHook[0]  "thruput (bit/sec)"  ETV
vector 648  University.accessPoint.eth[0].outputHook[0]  packet/sec  ETV
vector 395  University.remoteR.eth[0].inputHook[0]  "thruput (bit/sec)"  ETV
vector 396  University.remoteR.eth[0].inputHook[0]  packet/sec  ETV
vector 401  University.remoteR.ppp[0].outputHook[0]  "thruput (bit/sec)"  ETV
vector 402  University.remoteR.ppp[0].outputHook[0]  packet/sec  ETV
vector 425  University.profLaptop.ppp[0].outputHook[0]  "thruput (bit/sec)"  ETV
vector 426  University.profLaptop.ppp[0].outputHook[0]  packet/sec  ETV
vector 433  University.CCTV.eth[0].outputHook[0]  "thruput (bit/sec)"  ETV
vector 434  University.CCTV.eth[0].outputHook[0]  packet/sec  ETV
vector 399  University.remoteR.eth[1].inputHook[0]  "thruput (bit/sec)"  ETV
vector 400  University.remoteR.eth[1].inputHook[0]  packet/sec  ETV
vector 411  University.mainR.ppp[1].inputHook[0]  "thruput (bit/sec)"  ETV
vector 412  University.mainR.ppp[1].inputHook[0]  packet/sec  ETV
vector 409  University.mainR.ppp[1].outputHook[0]  "thruput (bit/sec)"  ETV
vector 410  University.mainR.ppp[1].outputHook[0]  packet/sec  ETV
vector 415  University.mainR.ppp[2].inputHook[0]  "thruput (bit/sec)"  ETV
vector 416  University.mainR.ppp[2].inputHook[0]  packet/sec  ETV
vector 405  University.mainR.ppp[0].outputHook[0]  "thruput (bit/sec)"  ETV
vector 406  University.mainR.ppp[0].outputHook[0]  packet/sec  ETV
vector 403  University.remoteR.ppp[0].inputHook[0]  "thruput (bit/sec)"  ETV
vector 404  University.remoteR.ppp[0].inputHook[0]  packet/sec  ETV
vector 393  University.remoteR.eth[0].outputHook[0]  "thruput (bit/sec)"  ETV
vector 394  University.remoteR.eth[0].outputHook[0]  packet/sec  ETV
vector 649  University.accessPoint.eth[0].inputHook[0]  "thruput (bit/sec)"  ETV
vector 650  University.accessPoint.eth[0].inputHook[0]  packet/sec  ETV
vector 637  University.accessPoint.wlan[0].outputHook[0]  "thruput (bit/sec)"  ETV
vector 638  University.accessPoint.wlan[0].outputHook[0]  packet/sec  ETV
vector 469  University.whttpStudents[3].wlan[0].inputHook[0]  "thruput (bit/sec)"  ETV
vector 470  University.whttpStudents[3].wlan[0].inputHook[0]  packet/sec  ETV
vector 173  University.whttpStudents[3].tcpApp[0]  rcvdPk:vector(packetBytes)  ETV
attr interpolationmode  none
attr source  rcvdPk
attr title  "packets received, vector(packetBytes)"
vector 175  University.whttpStudents[3].tcpApp[0]  endToEndDelay:vector  ETV
attr interpolationmode  none
attr source  messageAge(rcvdPk)
attr title  "end-to-end delay, vector"
attr unit  s
vector 176  University.whttpStudents[3].tcpApp[0]  numActiveSessions:vector  ETV
attr interpolationmode  sample-hold
attr source  sum(connect)
attr title  "number of active sessions, vector"
vector 467  University.whttpStudents[3].wlan[0].outputHook[0]  "thruput (bit/sec)"  ETV
vector 468  University.whttpStudents[3].wlan[0].outputHook[0]  packet/sec  ETV
vector 413  University.mainR.ppp[2].outputHook[0]  "thruput (bit/sec)"  ETV
vector 414  University.mainR.ppp[2].outputHook[0]  packet/sec  ETV
vector 431  University.Server.ppp[0].inputHook[0]  "thruput (bit/sec)"  ETV
vector 432  University.Server.ppp[0].inputHook[0]  packet/sec  ETV
vector 429  University.Server.ppp[0].outputHook[0]  "thruput (bit/sec)"  ETV
vector 430  University.Server.ppp[0].outputHook[0]  packet/sec  ETV
vector 248  University.whttpStudents[9].tcpApp[0]  numActiveSessions:vector  ETV
attr interpolationmode  sample-hold
attr source  sum(connect)
attr title  "number of active sessions, vector"
vector 188  University.whttpStudents[4].tcpApp[0]  numActiveSessions:vector  ETV
attr interpolationmode  sample-hold
attr source  sum(connect)
attr title  "number of active sessions, vector"
vector 186  University.whttpStudents[4].tcpApp[0]  sentPk:vector(packetBytes)  ETV
attr interpolationmode  none
attr source  sentPk
attr title  "packets sent, vector(packetBytes)"
vector 101  University.Server.tcpApp[0]  rcvdPk:vector(packetBytes)  ETV
attr interpolationmode  none
attr source  rcvdPk
attr title  "packets received, vector(packetBytes)"
vector 103  University.Server.tcpApp[0]  endToEndDelay:vector  ETV
attr interpolationmode  none
attr source  messageAge(rcvdPk)
attr title  "end-to-end delay, vector"
attr unit  s
vector 102  University.Server.tcpApp[0]  sentPk:vector(packetBytes)  ETV
attr interpolationmode  none
attr source  sentPk
attr title  "packets sent, vector(packetBytes)"
vector 479  University.whttpStudents[4].wlan[0].inputHook[0]  "thruput (bit/sec)"  ETV
vector 480  University.whttpStudents[4].wlan[0].inputHook[0]  packet/sec  ETV
vector 477  University.whttpStudents[4].wlan[0].outputHook[0]  "thruput (bit/sec)"  ETV
vector 478  University.whttpStudents[4].wlan[0].outputHook[0]  packet/sec  ETV
vector 164  University.whttpStudents[2].tcpApp[0]  numActiveSessions:vector  ETV
attr interpolationmode  sample-hold
attr source  sum(connect)
attr title  "number of active sessions, vector"
vector 499  University.whttpStudents[6].wlan[0].inputHook[0]  "thruput (bit/sec)"  ETV
vector 500  University.whttpStudents[6].wlan[0].inputHook[0]  packet/sec  ETV
vector 619  University.whostVideoConf.wlan[0].inputHook[0]  "thruput (bit/sec)"  ETV
vector 620  University.whostVideoConf.wlan[0].inputHook[0]  packet/sec  ETV
vector 609  University.whttpStudents[17].wlan[0].inputHook[0]  "thruput (bit/sec)"  ETV
vector 610  University.whttpStudents[17].wlan[0].inputHook[0]  packet/sec  ETV
vector 589  University.whttpStudents[15].wlan[0].inputHook[0]  "thruput (bit/sec)"  ETV
vector 590  University.whttpStudents[15].wlan[0].inputHook[0]  packet/sec  ETV
vector 489  University.whttpStudents[5].wlan[0].inputHook[0]  "thruput (bit/sec)"  ETV
vector 490  University.whttpStudents[5].wlan[0].inputHook[0]  packet/sec  ETV
vector 569  University.whttpStudents[13].wlan[0].inputHook[0]  "thruput (bit/sec)"  ETV
vector 570  University.whttpStudents[13].wlan[0].inputHook[0]  packet/sec  ETV
vector 579  University.whttpStudents[14].wlan[0].inputHook[0]  "thruput (bit/sec)"  ETV
vector 580  University.whttpStudents[14].wlan[0].inputHook[0]  packet/sec  ETV
vector 449  University.whttpStudents[1].wlan[0].inputHook[0]  "thruput (bit/sec)"  ETV
vector 450  University.whttpStudents[1].wlan[0].inputHook[0]  packet/sec  ETV
vector 599  University.whttpStudents[16].wlan[0].inputHook[0]  "thruput (bit/sec)"  ETV
vector 600  University.whttpStudents[16].wlan[0].inputHook[0]  packet/sec  ETV
vector 439  University.whttpStudents[0].wlan[0].inputHook[0]  "thruput (bit/sec)"  ETV
vector 440  University.whttpStudents[0].wlan[0].inputHook[0]  packet/sec  ETV
vector 629  University.whostFTP.wlan[0].inputHook[0]  "thruput (bit/sec)"  ETV
vector 630  University.whostFTP.wlan[0].inputHook[0]  packet/sec  ETV
vector 509  University.whttpStudents[7].wlan[0].inputHook[0]  "thruput (bit/sec)"  ETV
vector 510  University.whttpStudents[7].wlan[0].inputHook[0]  packet/sec  ETV
vector 519  University.whttpStudents[8].wlan[0].inputHook[0]  "thruput (bit/sec)"  ETV
vector 520  University.whttpStudents[8].wlan[0].inputHook[0]  packet/sec  ETV
vector 559  University.whttpStudents[12].wlan[0].inputHook[0]  "thruput (bit/sec)"  ETV
vector 560  University.whttpStudents[12].wlan[0].inputHook[0]  packet/sec  ETV
vector 529  University.whttpStudents[9].wlan[0].inputHook[0]  "thruput (bit/sec)"  ETV
vector 530  University.whttpStudents[9].wlan[0].inputHook[0]  packet/sec  ETV
vector 549  University.whttpStudents[11].wlan[0].inputHook[0]  "thruput (bit/sec)"  ETV
vector 550  University.whttpStudents[11].wlan[0].inputHook[0]  packet/sec  ETV
vector 539  University.whttpStudents[10].wlan[0].inputHook[0]  "thruput (bit/sec)"  ETV
vector 540  University.whttpStudents[10].wlan[0].inputHook[0]  packet/sec  ETV
vector 459  University.whttpStudents[2].wlan[0].inputHook[0]  "thruput (bit/sec)"  ETV
vector 460  University.whttpStudents[2].wlan[0].inputHook[0]  packet/sec  ETV
vector 162  University.whttpStudents[2].tcpApp[0]  sentPk:vector(packetBytes)  ETV
attr interpolationmode  none
attr source  sentPk
attr title  "packets sent, vector(packetBytes)"
vector 161  University.whttpStudents[2].tcpApp[0]  rcvdPk:vector(packetBytes)  ETV
attr interpolationmode  none
attr source  rcvdPk
attr title  "packets received, vector(packetBytes)"
vector 163  University.whttpStudents[2].tcpApp[0]  endToEndDelay:vector  ETV
attr interpolationmode  none
attr source  messageAge(rcvdPk)
attr title  "end-to-end delay, vector"
attr unit  s
vector 527  University.whttpStudents[9].wlan[0].outputHook[0]  "thruput (bit/sec)"  ETV
vector 528  University.whttpStudents[9].wlan[0].outputHook[0]  packet/sec  ETV
vector 296  University.whttpStudents[13].tcpApp[0]  numActiveSessions:vector  ETV
attr interpolationmode  sample-hold
attr source  sum(connect)
attr title  "number of active sessions, vector"
vector 140  University.whttpStudents[0].tcpApp[0]  numActiveSessions:vector  ETV
attr interpolationmode  sample-hold
attr source  sum(connect)
attr title  "number of active sessions, vector"
vector 138  University.whttpStudents[0].tcpApp[0]  sentPk:vector(packetBytes)  ETV
attr interpolationmode  none
attr source  sentPk
attr title  "packets sent, vector(packetBytes)"
vector 212  University.whttpStudents[6].tcpApp[0]  numActiveSessions:vector  ETV
attr interpolationmode  sample-hold
attr source  sum(connect)
attr title  "number of active sessions, vector"
vector 437  University.whttpStudents[0].wlan[0].outputHook[0]  "thruput (bit/sec)"  ETV
vector 438  University.whttpStudents[0].wlan[0].outputHook[0]  packet/sec  ETV
vector 320  University.whttpStudents[15].tcpApp[0]  numActiveSessions:vector  ETV
attr interpolationmode  sample-hold
attr source  sum(connect)
attr title  "number of active sessions, vector"
vector 567  University.whttpStudents[13].wlan[0].outputHook[0]  "thruput (bit/sec)"  ETV
vector 568  University.whttpStudents[13].wlan[0].outputHook[0]  packet/sec  ETV
vector 152  University.whttpStudents[1].tcpApp[0]  numActiveSessions:vector  ETV
attr interpolationmode  sample-hold
attr source  sum(connect)
attr title  "number of active sessions, vector"
vector 150  University.whttpStudents[1].tcpApp[0]  sentPk:vector(packetBytes)  ETV
attr interpolationmode  none
attr source  sentPk
attr title  "packets sent, vector(packetBytes)"
vector 149  University.whttpStudents[1].tcpApp[0]  rcvdPk:vector(packetBytes)  ETV
attr interpolationmode  none
attr source  rcvdPk
attr title  "packets received, vector(packetBytes)"
vector 151  University.whttpStudents[1].tcpApp[0]  endToEndDelay:vector  ETV
attr interpolationmode  none
attr source  messageAge(rcvdPk)
attr title  "end-to-end delay, vector"
attr unit  s
vector 497  University.whttpStudents[6].wlan[0].outputHook[0]  "thruput (bit/sec)"  ETV
vector 498  University.whttpStudents[6].wlan[0].outputHook[0]  packet/sec  ETV
vector 587  University.whttpStudents[15].wlan[0].outputHook[0]  "thruput (bit/sec)"  ETV
vector 588  University.whttpStudents[15].wlan[0].outputHook[0]  packet/sec  ETV
vector 457  University.whttpStudents[2].wlan[0].outputHook[0]  "thruput (bit/sec)"  ETV
vector 458  University.whttpStudents[2].wlan[0].outputHook[0]  packet/sec  ETV
vector 185  University.whttpStudents[4].tcpApp[0]  rcvdPk:vector(packetBytes)  ETV
attr interpolationmode  none
attr source  rcvdPk
attr title  "packets received, vector(packetBytes)"
vector 187  University.whttpStudents[4].tcpApp[0]  endToEndDelay:vector  ETV
attr interpolationmode  none
attr source  messageAge(rcvdPk)
attr title  "end-to-end delay, vector"
attr unit  s
vector 627  University.whostFTP.wlan[0].outputHook[0]  "thruput (bit/sec)"  ETV
vector 628  University.whostFTP.wlan[0].outputHook[0]  packet/sec  ETV
vector 447  University.whttpStudents[1].wlan[0].outputHook[0]  "thruput (bit/sec)"  ETV
vector 448  University.whttpStudents[1].wlan[0].outputHook[0]  packet/sec  ETV
vector 517  University.whttpStudents[8].wlan[0].outputHook[0]  "thruput (bit/sec)"  ETV
vector 518  University.whttpStudents[8].wlan[0].outputHook[0]  packet/sec  ETV
vector 260  University.whttpStudents[10].tcpApp[0]  numActiveSessions:vector  ETV
attr interpolationmode  sample-hold
attr source  sum(connect)
attr title  "number of active sessions, vector"
vector 607  University.whttpStudents[17].wlan[0].outputHook[0]  "thruput (bit/sec)"  ETV
vector 608  University.whttpStudents[17].wlan[0].outputHook[0]  packet/sec  ETV
vector 577  University.whttpStudents[14].wlan[0].outputHook[0]  "thruput (bit/sec)"  ETV
vector 578  University.whttpStudents[14].wlan[0].outputHook[0]  packet/sec  ETV
vector 284  University.whttpStudents[12].tcpApp[0]  numActiveSessions:vector  ETV
attr interpolationmode  sample-hold
attr source  sum(connect)
attr title  "number of active sessions, vector"
vector 200  University.whttpStudents[5].tcpApp[0]  numActiveSessions:vector  ETV
attr interpolationmode  sample-hold
attr source  sum(connect)
attr title  "number of active sessions, vector"
vector 537  University.whttpStudents[10].wlan[0].outputHook[0]  "thruput (bit/sec)"  ETV
vector 538  University.whttpStudents[10].wlan[0].outputHook[0]  packet/sec  ETV
vector 557  University.whttpStudents[12].wlan[0].outputHook[0]  "thruput (bit/sec)"  ETV
vector 558  University.whttpStudents[12].wlan[0].outputHook[0]  packet/sec  ETV
vector 224  University.whttpStudents[7].tcpApp[0]  numActiveSessions:vector  ETV
attr interpolationmode  sample-hold
attr source  sum(connect)
attr title  "number of active sessions, vector"
vector 487  University.whttpStudents[5].wlan[0].outputHook[0]  "thruput (bit/sec)"  ETV
vector 488  University.whttpStudents[5].wlan[0].outputHook[0]  packet/sec  ETV
vector 174  University.whttpStudents[3].tcpApp[0]  sentPk:vector(packetBytes)  ETV
attr interpolationmode  none
attr source  sentPk
attr title  "packets sent, vector(packetBytes)"
vector 507  University.whttpStudents[7].wlan[0].outputHook[0]  "thruput (bit/sec)"  ETV
vector 508  University.whttpStudents[7].wlan[0].outputHook[0]  packet/sec  ETV
vector 272  University.whttpStudents[11].tcpApp[0]  numActiveSessions:vector  ETV
attr interpolationmode  sample-hold
attr source  sum(connect)
attr title  "number of active sessions, vector"
vector 547  University.whttpStudents[11].wlan[0].outputHook[0]  "thruput (bit/sec)"  ETV
vector 548  University.whttpStudents[11].wlan[0].outputHook[0]  packet/sec  ETV
vector 137  University.whttpStudents[0].tcpApp[0]  rcvdPk:vector(packetBytes)  ETV
attr interpolationmode  none
attr source  rcvdPk
attr title  "packets received, vector(packetBytes)"
vector 139  University.whttpStudents[0].tcpApp[0]  endToEndDelay:vector  ETV
attr interpolationmode  none
attr source  messageAge(rcvdPk)
attr title  "end-to-end delay, vector"
attr unit  s
vector 332  University.whttpStudents[16].tcpApp[0]  numActiveSessions:vector  ETV
attr interpolationmode  sample-hold
attr source  sum(connect)
attr title  "number of active sessions, vector"
vector 597  University.whttpStudents[16].wlan[0].outputHook[0]  "thruput (bit/sec)"  ETV
vector 598  University.whttpStudents[16].wlan[0].outputHook[0]  packet/sec  ETV
vector 372  University.whostFTP.tcpApp[0]  numActiveSessions:vector  ETV
attr interpolationmode  sample-hold
attr source  sum(connect)
attr title  "number of active sessions, vector"
vector 236  University.whttpStudents[8].tcpApp[0]  numActiveSessions:vector  ETV
attr interpolationmode  sample-hold
attr source  sum(connect)
attr title  "number of active sessions, vector"
vector 308  University.whttpStudents[14].tcpApp[0]  numActiveSessions:vector  ETV
attr interpolationmode  sample-hold
attr source  sum(connect)
attr title  "number of active sessions, vector"
vector 344  University.whttpStudents[17].tcpApp[0]  numActiveSessions:vector  ETV
attr interpolationmode  sample-hold
attr source  sum(connect)
attr title  "number of active sessions, vector"
vector 397  University.remoteR.eth[1].outputHook[0]  "thruput (bit/sec)"  ETV
vector 398  University.remoteR.eth[1].outputHook[0]  packet/sec  ETV
vector 435  University.CCTV.eth[0].inputHook[0]  "thruput (bit/sec)"  ETV
vector 436  University.CCTV.eth[0].inputHook[0]  packet/sec  ETV
64	18738 2758706 271364 196482220 5.015728467927 3067.135728467927 76554 10240 10240 783912960 8027268710400
65	2777444 3447669 271364 196482220 5.015728467927 3067.135728467927 76554 0.017080129996 0.017148129995 1307.6888739095 22.337834085154
82	6225113 2683953 271382 196482281 5.026927827081 3067.146927827081 76554 1400 1400 107175600 150045840000
83	8909066 2685665 271384 196482296 5.033770629763 3067.153770629763 76554 1400 1400 107175600 150045840000
84	11594731 3448321 271382 196482281 5.026927827081 3067.146927827081 76554 0.016345602625 0.107209270499 1275.3675772825 21.349230312422
101	15043052 23262 304912 196473261 7.361387660633 3066.857493915352 706 1 1 706 706
102	15066314 26905 304912 196473261 7.361387660633 3066.857493915352 706 735 5696340 576842561 9.4561653661723e+14
103	15093219 32426 304912 196473261 7.361387660633 3066.857493915352 706 0.034685922389 0.041168122888 25.018485066219 0.88832566534591
119	15125645 2838774 271698 196482303 5.038648337931 3067.158648337931 76554 10240 10240 783912960 8027268710400
137	17964419 5409 2871360 196244188 34.990188885541 3054.028084814162 142 4284 5048479 100340108 1.564951760687e+14
138	17969828 4718 705848 196472379 11.880669159226 3066.822753955685 143 1 1 143 143
139	17974546 6546 2871360 196244188 34.990188885541 3054.028084814162 142 0.148392744324 37.340844669196 763.31811146732 11602.54789248
140	17981092 9399 703910 196471218 11.808017099728 3066.751686945875 285 0 1 143 143
149	17990491 5605 1136302 196244989 15.384091286698 3054.042086759564 147 2456 5696340 136190372 2.4781415220205e+14
150	17996096 4837 1043845 195476098 14.727766450898 3041.29015959458 147 1 1 147 147
151	18000933 6777 1136302 196244989 15.384091286698 3054.042086759564 147 0.145618523328 27.493153129577 970.04567678332 12659.018296482
152	18007710 9672 1041272 196244989 14.6550963959 3054.042086759564 294 0 1 147 147
161	18017382 5425 661626 196469031 9.352271952195 3066.670737687278 142 2837 3465356 103957272 1.4771383519767e+14
162	18022807 4704 572588 196397718 8.705421963038 3066.041313988818 142 1 1 142 142
163	18027511 6566 661626 196469031 9.352271952195 3066.670737687278 142 0.145944581418 24.275838878612 815.94534266539 10848.127177107
164	18034077 9396 564944 196469031 8.632787953244 3066.670737687278 284 0 1 142 142
173	18043473 5638 289072 196184557 6.135611085163 3052.94544843662 148 3407 3739658 126229096 2.0347494996271e+14
174	18049111 4846 1878863 196097537 28.813060252226 3052.279744289495 147 1 1 147 147
175	18053957 6837 289072 196184557 6.135611085163 3052.94544843662 148 0.150817536408 23.418962566532 987.64227569128 13262.859981276
176	18060794 9866 289072 196184557 6.135611085163 3052.94544843662 295 -1 0 -148 148
185	18070660 4843 1270588 196272534 20.158161332498 3054.465828512203 127 735 3857127 109250327 1.8813269233138e+14
186	18075503 4178 304061 196234475 7.326692672148 3054.001579431872 127 1 1 127 127
187	18079681 5864 1270588 196272534 20.158161332498 3054.465828512203 127 0.072535617921 25.639346761577 841.51352031654 11821.751260641
188	18085545 8374 302623 196272534 7.254031574226 3054.465828512203 254 0 1 127 127
200	18093919 1113 1797128 192715209 25.083168004874 2993.038365923644 33 1 33 561 12529
212	18095032 1146 811981 195947502 12.591492793503 3045.669215030317 34 1 34 595 13685
224	18096178 1181 1841424 196249872 27.125538964124 3054.206453681547 35 1 35 630 14910
236	18097359 1114 5859266 192649204 76.450945739252 2991.779793737951 33 1 33 561 12529
248	18098473 1212 297843 195118634 6.888722058828 3031.916727181893 36 1 36 666 16206
260	18099685 1209 1718053 192299823 22.58676387956 2986.491829451998 36 1 36 666 16206
272	18100894 1148 2217614 195014821 30.613383238675 3023.028088407073 34 1 34 595 13685
284	18102042 1179 1767324 196016592 24.078593355922 3048.234691170797 35 1 35 630 14910
296	18103221 1141 690743 196275220 11.024466317847 3054.608584205007 34 1 34 595 13685
308	18104362 1114 5915578 195094359 81.741747128164 3029.657656243597 33 1 33 561 12529
320	18105476 1179 961475 194284245 13.084817925631 3011.799563799331 35 1 35 630 14910
332	18106655 1146 3478439 195466142 43.416307169806 3040.822194968136 34 1 34 595 13685
344	18107801 1151 7070349 195097162 111.958520509484 3029.912074873825 34 1 34 595 13685
354	18108952 2762255 271116 196482518 5.010582224456 3067.170582224456 76555 1400 1400 107177000 150047800000
372	20871207 835 5843568 193112355 75 3000 40 1 40 820 22140
393	20872042 112455 288993 196476821 5.110513200344 3066.0412380064 2413 21.741061172547 11317313.912019 4578689786.7323 2.1458642298844e+16
394	20984497 112106 288993 196476821 5.110513200344 3066.0412380064 2413 0.067940816164208 944.79980116617 384558.52338889 150484898.44082
395	21096603 127697 287230 196474598 5.010971160415 3065.930971160415 3046 280548.93991905 583815.80379382 999951796.3018 3.3889671306573e+14
396	21224300 121063 287230 196474598 5.010971160415 3065.930971160415 3046 24.9995500081 933.57409787177 481798.52551771 178168119.95914
397	21345363 1133 14146450 193158719 120.038654147931 2880.958654147931 24 1.8660446517827 1.8660446517827 44.785071642786 83.570943418727
398	21346496 1205 14146450 193158719 120.038654147931 2880.958654147931 24 0.0083305564811729 0.0083305564811729 0.19993335554815 0.0016655561108643
399	21347701 116741 287406 196476462 5.038770467931 3066.03889350793 3062 2077600 2089367.2027084 6361628543.0587 1.3216955632709e+16
400	21464442 104501 287406 196476462 5.038770467931 3066.03889350793 3062 175 176 535875.97834717 93782868.378592
401	21568943 116757 287232 196476464 5.010971160415 3066.03889350793 3062 2363200 2651392 7366990449.6753 1.7734799910646e+16
402	21685700 104536 287232 196476464 5.010971160415 3066.03889350793 3062 200 1100 1020854.6276703 440622917.34952
403	21790236 112419 288991 196476819 5.110513200344 3066.0412380064 2412 21.741061172547 11317313.912019 4577569141.9692 2.1471362224457e+16
404	21902655 112070 288991 196476819 5.110513200344 3066.0412380064 2412 0.067940816164208 944.79980116617 384343.51628347 150518332.17961
405	22014725 111659 288738 196476404 5.099508533678 3066.031201339734 2402 107.92907784787 12095663.085017 5015778625.5023 2.7975881795765e+16
406	22126384 111323 288738 196476404 5.099508533678 3066.031201339734 2402 0.33727836827458 1009.8912493472 420912.05987195 195879247.95826
407	22237707 120052 287093 196481963 5.009775134597 3066.129775134597 3062 2340038.8194721 2652224 7367030486.9031 1.7735066055619e+16
408	22357759 108013 287093 196481963 5.009775134597 3066.129775134597 3062 200 1103 1020844.263647 441032926.13184
409	22465772 116609 287415 196476454 5.038770629763 3066.038770629763 3062 273952 319648 908801600 2.6973361995776e+14
410	22582381 104361 287415 196476454 5.038770629763 3066.038770629763 3062 48 52 153100 7655010
411	22686742 116609 287412 196476451 5.038770629763 3066.038770629763 3062 285600 285600 874507200 2.4975925632e+14
412	22803351 104361 287412 196476451 5.038770629763 3066.038770629763 3062 25 25 76550 1913750
413	22907712 123114 289567 196478265 5.121342532516 3065.980359492944 2664 161.30791625775 291329.14295822 127616803.46795 15425741066264
414	23030826 122805 289567 196478265 5.121342532516 3065.980359492944 2664 0.50408723830546 909.40422644066 396634.06271189 150001677.51671
415	23153631 122698 288736 196476402 5.099508533678 3066.031201339734 2641 128 12184143.41811 5090827514.2204 2.8057166025301e+16
416	23276329 122415 288736 196476402 5.099508533678 3066.031201339734 2641 0.33333333333333 1016.2417104007 431117.00878825 197625785.00983
417	23398744 119975 287095 196481965 5.009775134597 3066.129775134597 3062 2019993.2560567 2087723.8321821 6361616905.264 1.3216918886706e+16
418	23518719 107917 287095 196481965 5.009775134597 3066.129775134597 3062 170.21024188491 175.8419766769 535850.47436745 93773997.268645
423	23626636 119975 287100 196481970 5.009775134597 3066.129775134597 3062 2019993.2560567 2087723.8321821 6361616905.264 1.3216918886706e+16
424	23746611 107917 287100 196481970 5.009775134597 3066.129775134597 3062 170.21024188491 175.8419766769 535850.47436745 93773997.268645
425	23854528 116609 287375 196476413 5.033770629763 3066.033770629763 3062 285600 285600 874507200 2.4975925632e+14
426	23971137 104361 287375 196476413 5.033770629763 3066.033770629763 3062 25 25 76550 1913750
427	24075498 116608 287083 196476089 5.003770629763 3066.003770629763 3062 285376 308224 908801600 2.6973309792666e+14
428	24192106 104360 287083 196476089 5.003770629763 3066.003770629763 3062 49 51 153100 7655006
429	24296466 122781 289717 196478404 5.145222527652 3066.00424012808 2640 128 15333913.849862 5367403684.2474 3.1698623935887e+16
430	24419247 122442 289717 196478404 5.145222527652 3066.00424012808 2640 0.33333333333333 1284.0979800312 454181.14188891 223135002.03794
431	24541689 123556 289708 196478399 5.145222527652 3066.00424012808 2664 161.30791625775 291329.14295822 127616808.13767 15425742453075
432	24665245 123252 289708 196478399 5.145222527652 3066.00424012808 2664 0.50408723830546 909.40422644066 396634.07717194 150001690.96318
433	24788497 119671 287382 196476421 5.038648337931 3066.038648337931 3062 2077600 2077824 6361616800 1.3216906699494e+16
434	24908168 107423 287382 196476421 5.038648337931 3066.038648337931 3062 175 176 535875 93782525
435	25015591 1133 14146457 193158726 120.038659957931 2880.958659957931 24 1.8660446517827 1.8660446517827 44.785071642786 83.570943418727
436	25016724 1205 14146457 193158726 120.038659957931 2880.958659957931 24 0.0083305564811729 0.0083305564811729 0.19993335554815 0.0016655561108643
437	25017929 34057 895115 196471221 11.808017099728 3053.396547080815 727 21.726140127952 231961.45376251 17730775.648023 1667926115491.2
438	25051986 34022 895115 196471221 11.808017099728 3053.396547080815 727 0.06789418789985 724.87954300784 55395.147494574 16279138.260622
439	25086008 37400 565232 196472375 6.889882117171 3053.468323930625 798 4.2270800871164 8983764.1669293 669738597.33614 2.5756110337766e+15
440	25123408 37434 565232 196472375 6.889882117171 3053.468323930625 798 0.018870893246056 749.47019178897 56129.942539423 18016280.970997
447	25160842 43902 1495997 196197378 14.6550963959 3052.489295405338 939 14.607300285733 267761.22486774 25218917.647752 2460791586765.9
448	25204744 43930 1495997 196197378 14.6550963959 3052.489295405338 939 0.045647813392915 836.7538277117 78792.344007195 24019418.295588
449	25248674 47038 565220 196199200 6.889882116046 3052.562086759564 1006 7.0714200672851 9705936.0714558 948866527.09056 3.7156829549743e+15
450	25295712 47149 565220 196199200 6.889882116046 3052.562086759564 1006 0.031568839586094 808.82800595465 79477.142660396 25989900.43566
457	25342861 37311 1257365 196396625 8.632787953244 3041.039794972273 794 6.3942565381899 281276.06588814 18810655.601159 1830714536128.1
458	25380172 37348 1257365 196396625 8.632787953244 3041.039794972273 794 0.019982051681844 878.98770590045 58767.735028479 17867464.166938
459	25417520 40368 565324 196397714 6.889882104745 3053.468323918199 860 3.4197146420135 7950183.2752908 699272520.53379 2.6983070486771e+15