file 48421000 1471642854                                        
version 2
run _18to20on-3-20160819-23:15:38-21451
attr configname _18to20on
attr datetime 20160819-23:15:38
attr experiment _18to20on
attr inifile omnetpp.ini
attr iterationvars $0=18
attr iterationvars2 "$0=18, $repetition=3"
attr measurement $0=18
attr network University
attr processid 21451
attr repetition 3
attr replication #3
attr resultdir results
attr runnumber 3
attr seedset 3

vector 64  University.ccTVMonitoringHost.udpApp[0]  rcvdPk:vector(packetBytes)  ETV
attr interpolationmode  none
attr source  rcvdPk
attr title  "packets received, vector(packetBytes)"
vector 65  University.ccTVMonitoringHost.udpApp[0]  endToEndDelay:vector  ETV
attr interpolationmode  none
attr source  messageAge(rcvdPk)
attr title  "end-to-end delay, vector"
attr unit  s
vector 82  University.profLaptop.udpApp[0]  rcvdPk:vector(packetBytes)  ETV
attr interpolationmode  none
attr source  rcvdPk
attr title  "packets received, vector(packetBytes)"
vector 84  University.profLaptop.udpApp[0]  rcvdPkLifetime:vector  ETV
attr interpolationmode  none
attr source  messageAge(rcvdPk)
attr title  "received packet lifetime, vector"
attr unit  s
vector 83  University.profLaptop.udpApp[0]  sentPk:vector(packetBytes)  ETV
attr interpolationmode  none
attr source  sentPk
attr title  "packets sent, vector(packetBytes)"
vector 119  University.CCTV.udpApp[0]  sentPk:vector(packetBytes)  ETV
attr interpolationmode  none
attr source  sentPk
attr title  "packets sent, vector(packetBytes)"
vector 354  University.whostVideoConf.udpApp[0]  sentPk:vector(packetBytes)  ETV
attr interpolationmode  none
attr source  sentPk
attr title  "packets sent, vector(packetBytes)"
vector 427  University.profLaptop.ppp[0].inputHook[0]  "thruput (bit/sec)"  ETV
vector 428  University.profLaptop.ppp[0].inputHook[0]  packet/sec  ETV
vector 407  University.mainR.ppp[0].inputHook[0]  "thruput (bit/sec)"  ETV
vector 408  University.mainR.ppp[0].inputHook[0]  packet/sec  ETV
vector 417  University.mainR.ppp[3].outputHook[0]  "thruput (bit/sec)"  ETV
vector 418  University.mainR.ppp[3].outputHook[0]  packet/sec  ETV
vector 423  University.ccTVMonitoringHost.ppp[0].inputHook[0]  "thruput (bit/sec)"  ETV
vector 424  University.ccTVMonitoringHost.ppp[0].inputHook[0]  packet/sec  ETV
vector 425  University.profLaptop.ppp[0].outputHook[0]  "thruput (bit/sec)"  ETV
vector 426  University.profLaptop.ppp[0].outputHook[0]  packet/sec  ETV
vector 433  University.CCTV.eth[0].outputHook[0]  "thruput (bit/sec)"  ETV
vector 434  University.CCTV.eth[0].outputHook[0]  packet/sec  ETV
vector 399  University.remoteR.eth[1].inputHook[0]  "thruput (bit/sec)"  ETV
vector 400  University.remoteR.eth[1].inputHook[0]  packet/sec  ETV
vector 401  University.remoteR.ppp[0].outputHook[0]  "thruput (bit/sec)"  ETV
vector 402  University.remoteR.ppp[0].outputHook[0]  packet/sec  ETV
vector 411  University.mainR.ppp[1].inputHook[0]  "thruput (bit/sec)"  ETV
vector 412  University.mainR.ppp[1].inputHook[0]  packet/sec  ETV
vector 409  University.mainR.ppp[1].outputHook[0]  "thruput (bit/sec)"  ETV
vector 410  University.mainR.ppp[1].outputHook[0]  packet/sec  ETV
vector 617  University.whostVideoConf.wlan[0].outputHook[0]  "thruput (bit/sec)"  ETV
vector 618  University.whostVideoConf.wlan[0].outputHook[0]  packet/sec  ETV
vector 639  University.accessPoint.wlan[0].inputHook[0]  "thruput (bit/sec)"  ETV
vector 640  University.accessPoint.wlan[0].inputHook[0]  packet/sec  ETV
vector 647  University.accessPoint.eth[0].outputHook[0]  "thruput (bit/sec)"  ETV
vector 648  University.accessPoint.eth[0].outputHook[0]  packet/sec  ETV
vector 395  University.remoteR.eth[0].inputHook[0]  "thruput (bit/sec)"  ETV
vector 396  University.remoteR.eth[0].inputHook[0]  packet/sec  ETV
vector 413  University.mainR.ppp[2].outputHook[0]  "thruput (bit/sec)"  ETV
vector 414  University.mainR.ppp[2].outputHook[0]  packet/sec  ETV
vector 431  University.Server.ppp[0].inputHook[0]  "thruput (bit/sec)"  ETV
vector 432  University.Server.ppp[0].inputHook[0]  packet/sec  ETV
vector 393  University.remoteR.eth[0].outputHook[0]  "thruput (bit/sec)"  ETV
vector 394  University.remoteR.eth[0].outputHook[0]  packet/sec  ETV
vector 649  University.accessPoint.eth[0].inputHook[0]  "thruput (bit/sec)"  ETV
vector 650  University.accessPoint.eth[0].inputHook[0]  packet/sec  ETV
vector 637  University.accessPoint.wlan[0].outputHook[0]  "thruput (bit/sec)"  ETV
vector 638  University.accessPoint.wlan[0].outputHook[0]  packet/sec  ETV
vector 459  University.whttpStudents[2].wlan[0].inputHook[0]  "thruput (bit/sec)"  ETV
vector 460  University.whttpStudents[2].wlan[0].inputHook[0]  packet/sec  ETV
vector 457  University.whttpStudents[2].wlan[0].outputHook[0]  "thruput (bit/sec)"  ETV
vector 458  University.whttpStudents[2].wlan[0].outputHook[0]  packet/sec  ETV
vector 429  University.Server.ppp[0].outputHook[0]  "thruput (bit/sec)"  ETV
vector 430  University.Server.ppp[0].outputHook[0]  packet/sec  ETV
vector 415  University.mainR.ppp[2].inputHook[0]  "thruput (bit/sec)"  ETV
vector 416  University.mainR.ppp[2].inputHook[0]  packet/sec  ETV
vector 405  University.mainR.ppp[0].outputHook[0]  "thruput (bit/sec)"  ETV
vector 406  University.mainR.ppp[0].outputHook[0]  packet/sec  ETV
vector 403  University.remoteR.ppp[0].inputHook[0]  "thruput (bit/sec)"  ETV
vector 404  University.remoteR.ppp[0].inputHook[0]  packet/sec  ETV
vector 467  University.whttpStudents[3].wlan[0].outputHook[0]  "thruput (bit/sec)"  ETV
vector 468  University.whttpStudents[3].wlan[0].outputHook[0]  packet/sec  ETV
vector 224  University.whttpStudents[7].tcpApp[0]  numActiveSessions:vector  ETV
attr interpolationmode  sample-hold
attr source  sum(connect)
attr title  "number of active sessions, vector"
vector 469  University.whttpStudents[3].wlan[0].inputHook[0]  "thruput (bit/sec)"  ETV
vector 470  University.whttpStudents[3].wlan[0].inputHook[0]  packet/sec  ETV
vector 173  University.whttpStudents[3].tcpApp[0]  rcvdPk:vector(packetBytes)  ETV
attr interpolationmode  none
attr source  rcvdPk
attr title  "packets received, vector(packetBytes)"
vector 175  University.whttpStudents[3].tcpApp[0]  endToEndDelay:vector  ETV
attr interpolationmode  none
attr source  messageAge(rcvdPk)
attr title  "end-to-end delay, vector"
attr unit  s
vector 176  University.whttpStudents[3].tcpApp[0]  numActiveSessions:vector  ETV
attr interpolationmode  sample-hold
attr source  sum(connect)
attr title  "number of active sessions, vector"
vector 152  University.whttpStudents[1].tcpApp[0]  numActiveSessions:vector  ETV
attr interpolationmode  sample-hold
attr source  sum(connect)
attr title  "number of active sessions, vector"
vector 499  University.whttpStudents[6].wlan[0].inputHook[0]  "thruput (bit/sec)"  ETV
vector 500  University.whttpStudents[6].wlan[0].inputHook[0]  packet/sec  ETV
vector 569  University.whttpStudents[13].wlan[0].inputHook[0]  "thruput (bit/sec)"  ETV
vector 570  University.whttpStudents[13].wlan[0].inputHook[0]  packet/sec  ETV
vector 549  University.whttpStudents[11].wlan[0].inputHook[0]  "thruput (bit/sec)"  ETV
vector 550  University.whttpStudents[11].wlan[0].inputHook[0]  packet/sec  ETV
vector 519  University.whttpStudents[8].wlan[0].inputHook[0]  "thruput (bit/sec)"  ETV
vector 520  University.whttpStudents[8].wlan[0].inputHook[0]  packet/sec  ETV
vector 559  University.whttpStudents[12].wlan[0].inputHook[0]  "thruput (bit/sec)"  ETV
vector 560  University.whttpStudents[12].wlan[0].inputHook[0]  packet/sec  ETV
vector 599  University.whttpStudents[16].wlan[0].inputHook[0]  "thruput (bit/sec)"  ETV
vector 600  University.whttpStudents[16].wlan[0].inputHook[0]  packet/sec  ETV
vector 579  University.whttpStudents[14].wlan[0].inputHook[0]  "thruput (bit/sec)"  ETV
vector 580  University.whttpStudents[14].wlan[0].inputHook[0]  packet/sec  ETV
vector 509  University.whttpStudents[7].wlan[0].inputHook[0]  "thruput (bit/sec)"  ETV
vector 510  University.whttpStudents[7].wlan[0].inputHook[0]  packet/sec  ETV
vector 589  University.whttpStudents[15].wlan[0].inputHook[0]  "thruput (bit/sec)"  ETV
vector 590  University.whttpStudents[15].wlan[0].inputHook[0]  packet/sec  ETV
vector 629  University.whostFTP.wlan[0].inputHook[0]  "thruput (bit/sec)"  ETV
vector 630  University.whostFTP.wlan[0].inputHook[0]  packet/sec  ETV
vector 609  University.whttpStudents[17].wlan[0].inputHook[0]  "thruput (bit/sec)"  ETV
vector 610  University.whttpStudents[17].wlan[0].inputHook[0]  packet/sec  ETV
vector 439  University.whttpStudents[0].wlan[0].inputHook[0]  "thruput (bit/sec)"  ETV
vector 440  University.whttpStudents[0].wlan[0].inputHook[0]  packet/sec  ETV
vector 539  University.whttpStudents[10].wlan[0].inputHook[0]  "thruput (bit/sec)"  ETV
vector 540  University.whttpStudents[10].wlan[0].inputHook[0]  packet/sec  ETV
vector 489  University.whttpStudents[5].wlan[0].inputHook[0]  "thruput (bit/sec)"  ETV
vector 490  University.whttpStudents[5].wlan[0].inputHook[0]  packet/sec  ETV
vector 479  University.whttpStudents[4].wlan[0].inputHook[0]  "thruput (bit/sec)"  ETV
vector 480  University.whttpStudents[4].wlan[0].inputHook[0]  packet/sec  ETV
vector 529  University.whttpStudents[9].wlan[0].inputHook[0]  "thruput (bit/sec)"  ETV
vector 530  University.whttpStudents[9].wlan[0].inputHook[0]  packet/sec  ETV
vector 619  University.whostVideoConf.wlan[0].inputHook[0]  "thruput (bit/sec)"  ETV
vector 620  University.whostVideoConf.wlan[0].inputHook[0]  packet/sec  ETV
vector 449  University.whttpStudents[1].wlan[0].inputHook[0]  "thruput (bit/sec)"  ETV
vector 450  University.whttpStudents[1].wlan[0].inputHook[0]  packet/sec  ETV
vector 150  University.whttpStudents[1].tcpApp[0]  sentPk:vector(packetBytes)  ETV
attr interpolationmode  none
attr source  sentPk
attr title  "packets sent, vector(packetBytes)"
vector 101  University.Server.tcpApp[0]  rcvdPk:vector(packetBytes)  ETV
attr interpolationmode  none
attr source  rcvdPk
attr title  "packets received, vector(packetBytes)"
vector 103  University.Server.tcpApp[0]  endToEndDelay:vector  ETV
attr interpolationmode  none
attr source  messageAge(rcvdPk)
attr title  "end-to-end delay, vector"
attr unit  s
vector 102  University.Server.tcpApp[0]  sentPk:vector(packetBytes)  ETV
attr interpolationmode  none
attr source  sentPk
attr title  "packets sent, vector(packetBytes)"
vector 188  University.whttpStudents[4].tcpApp[0]  numActiveSessions:vector  ETV
attr interpolationmode  sample-hold
attr source  sum(connect)
attr title  "number of active sessions, vector"
vector 186  University.whttpStudents[4].tcpApp[0]  sentPk:vector(packetBytes)  ETV
attr interpolationmode  none
attr source  sentPk
attr title  "packets sent, vector(packetBytes)"
vector 185  University.whttpStudents[4].tcpApp[0]  rcvdPk:vector(packetBytes)  ETV
attr interpolationmode  none
attr source  rcvdPk
attr title  "packets received, vector(packetBytes)"
vector 187  University.whttpStudents[4].tcpApp[0]  endToEndDelay:vector  ETV
attr interpolationmode  none
attr source  messageAge(rcvdPk)
attr title  "end-to-end delay, vector"
attr unit  s
vector 507  University.whttpStudents[7].wlan[0].outputHook[0]  "thruput (bit/sec)"  ETV
vector 508  University.whttpStudents[7].wlan[0].outputHook[0]  packet/sec  ETV
vector 447  University.whttpStudents[1].wlan[0].outputHook[0]  "thruput (bit/sec)"  ETV
vector 448  University.whttpStudents[1].wlan[0].outputHook[0]  packet/sec  ETV
vector 161  University.whttpStudents[2].tcpApp[0]  rcvdPk:vector(packetBytes)  ETV
attr interpolationmode  none
attr source  rcvdPk
attr title  "packets received, vector(packetBytes)"
vector 163  University.whttpStudents[2].tcpApp[0]  endToEndDelay:vector  ETV
attr interpolationmode  none
attr source  messageAge(rcvdPk)
attr title  "end-to-end delay, vector"
attr unit  s
vector 164  University.whttpStudents[2].tcpApp[0]  numActiveSessions:vector  ETV
attr interpolationmode  sample-hold
attr source  sum(connect)
attr title  "number of active sessions, vector"
vector 140  University.whttpStudents[0].tcpApp[0]  numActiveSessions:vector  ETV
attr interpolationmode  sample-hold
attr source  sum(connect)
attr title  "number of active sessions, vector"
vector 138  University.whttpStudents[0].tcpApp[0]  sentPk:vector(packetBytes)  ETV
attr interpolationmode  none
attr source  sentPk
attr title  "packets sent, vector(packetBytes)"
vector 487  University.whttpStudents[5].wlan[0].outputHook[0]  "thruput (bit/sec)"  ETV
vector 488  University.whttpStudents[5].wlan[0].outputHook[0]  packet/sec  ETV
vector 437  University.whttpStudents[0].wlan[0].outputHook[0]  "thruput (bit/sec)"  ETV
vector 438  University.whttpStudents[0].wlan[0].outputHook[0]  packet/sec  ETV
vector 308  University.whttpStudents[14].tcpApp[0]  numActiveSessions:vector  ETV
attr interpolationmode  sample-hold
attr source  sum(connect)
attr title  "number of active sessions, vector"
vector 272  University.whttpStudents[11].tcpApp[0]  numActiveSessions:vector  ETV
attr interpolationmode  sample-hold
attr source  sum(connect)
attr title  "number of active sessions, vector"
vector 597  University.whttpStudents[16].wlan[0].outputHook[0]  "thruput (bit/sec)"  ETV
vector 598  University.whttpStudents[16].wlan[0].outputHook[0]  packet/sec  ETV
vector 477  University.whttpStudents[4].wlan[0].outputHook[0]  "thruput (bit/sec)"  ETV
vector 478  University.whttpStudents[4].wlan[0].outputHook[0]  packet/sec  ETV
vector 236  University.whttpStudents[8].tcpApp[0]  numActiveSessions:vector  ETV
attr interpolationmode  sample-hold
attr source  sum(connect)
attr title  "number of active sessions, vector"
vector 537  University.whttpStudents[10].wlan[0].outputHook[0]  "thruput (bit/sec)"  ETV
vector 538  University.whttpStudents[10].wlan[0].outputHook[0]  packet/sec  ETV
vector 567  University.whttpStudents[13].wlan[0].outputHook[0]  "thruput (bit/sec)"  ETV
vector 568  University.whttpStudents[13].wlan[0].outputHook[0]  packet/sec  ETV
vector 577  University.whttpStudents[14].wlan[0].outputHook[0]  "thruput (bit/sec)"  ETV
vector 578  University.whttpStudents[14].wlan[0].outputHook[0]  packet/sec  ETV
vector 547  University.whttpStudents[11].wlan[0].outputHook[0]  "thruput (bit/sec)"  ETV
vector 548  University.whttpStudents[11].wlan[0].outputHook[0]  packet/sec  ETV
vector 149  University.whttpStudents[1].tcpApp[0]  rcvdPk:vector(packetBytes)  ETV
attr interpolationmode  none
attr source  rcvdPk
attr title  "packets received, vector(packetBytes)"
vector 151  University.whttpStudents[1].tcpApp[0]  endToEndDelay:vector  ETV
attr interpolationmode  none
attr source  messageAge(rcvdPk)
attr title  "end-to-end delay, vector"
attr unit  s
vector 212  University.whttpStudents[6].tcpApp[0]  numActiveSessions:vector  ETV
attr interpolationmode  sample-hold
attr source  sum(connect)
attr title  "number of active sessions, vector"
vector 517  University.whttpStudents[8].wlan[0].outputHook[0]  "thruput (bit/sec)"  ETV
vector 518  University.whttpStudents[8].wlan[0].outputHook[0]  packet/sec  ETV
vector 174  University.whttpStudents[3].tcpApp[0]  sentPk:vector(packetBytes)  ETV
attr interpolationmode  none
attr source  sentPk
attr title  "packets sent, vector(packetBytes)"
vector 284  University.whttpStudents[12].tcpApp[0]  numActiveSessions:vector  ETV
attr interpolationmode  sample-hold
attr source  sum(connect)
attr title  "number of active sessions, vector"
vector 162  University.whttpStudents[2].tcpApp[0]  sentPk:vector(packetBytes)  ETV
attr interpolationmode  none
attr source  sentPk
attr title  "packets sent, vector(packetBytes)"
vector 497  University.whttpStudents[6].wlan[0].outputHook[0]  "thruput (bit/sec)"  ETV
vector 498  University.whttpStudents[6].wlan[0].outputHook[0]  packet/sec  ETV
vector 344  University.whttpStudents[17].tcpApp[0]  numActiveSessions:vector  ETV
attr interpolationmode  sample-hold
attr source  sum(connect)
attr title  "number of active sessions, vector"
vector 137  University.whttpStudents[0].tcpApp[0]  rcvdPk:vector(packetBytes)  ETV
attr interpolationmode  none
attr source  rcvdPk
attr title  "packets received, vector(packetBytes)"
vector 139  University.whttpStudents[0].tcpApp[0]  endToEndDelay:vector  ETV
attr interpolationmode  none
attr source  messageAge(rcvdPk)
attr title  "end-to-end delay, vector"
attr unit  s
vector 557  University.whttpStudents[12].wlan[0].outputHook[0]  "thruput (bit/sec)"  ETV
vector 558  University.whttpStudents[12].wlan[0].outputHook[0]  packet/sec  ETV
vector 627  University.whostFTP.wlan[0].outputHook[0]  "thruput (bit/sec)"  ETV
vector 628  University.whostFTP.wlan[0].outputHook[0]  packet/sec  ETV
vector 248  University.whttpStudents[9].tcpApp[0]  numActiveSessions:vector  ETV
attr interpolationmode  sample-hold
attr source  sum(connect)
attr title  "number of active sessions, vector"
vector 607  University.whttpStudents[17].wlan[0].outputHook[0]  "thruput (bit/sec)"  ETV
vector 608  University.whttpStudents[17].wlan[0].outputHook[0]  packet/sec  ETV
vector 527  University.whttpStudents[9].wlan[0].outputHook[0]  "thruput (bit/sec)"  ETV
vector 528  University.whttpStudents[9].wlan[0].outputHook[0]  packet/sec  ETV
vector 320  University.whttpStudents[15].tcpApp[0]  numActiveSessions:vector  ETV
attr interpolationmode  sample-hold
attr source  sum(connect)
attr title  "number of active sessions, vector"
vector 587  University.whttpStudents[15].wlan[0].outputHook[0]  "thruput (bit/sec)"  ETV
vector 588  University.whttpStudents[15].wlan[0].outputHook[0]  packet/sec  ETV
vector 372  University.whostFTP.tcpApp[0]  numActiveSessions:vector  ETV
attr interpolationmode  sample-hold
attr source  sum(connect)
attr title  "number of active sessions, vector"
vector 260  University.whttpStudents[10].tcpApp[0]  numActiveSessions:vector  ETV
attr interpolationmode  sample-hold
attr source  sum(connect)
attr title  "number of active sessions, vector"
vector 296  University.whttpStudents[13].tcpApp[0]  numActiveSessions:vector  ETV
attr interpolationmode  sample-hold
attr source  sum(connect)
attr title  "number of active sessions, vector"
vector 200  University.whttpStudents[5].tcpApp[0]  numActiveSessions:vector  ETV
attr interpolationmode  sample-hold
attr source  sum(connect)
attr title  "number of active sessions, vector"
vector 332  University.whttpStudents[16].tcpApp[0]  numActiveSessions:vector  ETV
attr interpolationmode  sample-hold
attr source  sum(connect)
attr title  "number of active sessions, vector"
vector 397  University.remoteR.eth[1].outputHook[0]  "thruput (bit/sec)"  ETV
vector 398  University.remoteR.eth[1].outputHook[0]  packet/sec  ETV
vector 435  University.CCTV.eth[0].inputHook[0]  "thruput (bit/sec)"  ETV
vector 436  University.CCTV.eth[0].inputHook[0]  packet/sec  ETV
64	18738 2778571 478260 229688559 5.015446806216 3076.015446806216 76776 10240 10240 786186240 8050547097600
65	2797309 3469519 478260 229688559 5.015446806216 3076.015446806216 76776 0.017080129996 0.017163101205 1311.7405005645 22.411482567774
82	6266828 2701642 480442 229688571 5.021434806215 3076.021403472882 76775 1400 1400 107485000 150479000000
83	8968470 2701830 484759 229688572 5.033597961692 3076.033597961692 76776 1400 1400 107486400 150480960000
84	11670300 3469116 480442 229688571 5.021434806215 3076.021403472882 76775 0.022363655765 0.194138286627 1720.8512603484 38.688465411035
101	15139416 26925 619628 229274351 8.701640328424 3067.367642844323 817 1 1 817 817
102	15166341 31180 619628 229274351 8.701640328424 3067.367642844323 817 808 4992276 694614373 1.1112855226641e+15
103	15197521 37523 619628 229274351 8.701640328424 3067.367642844323 817 0.034818201582 0.04213909953 29.110853471129 1.0395842204683
119	15235044 2778607 486444 229688579 5.03836667622 3076.03836667622 76776 10240 10240 786186240 8050547097600
137	18013651 6261 1867638 227813546 19.152547724727 3030.450008144466 164 3653 3936848 127896370 1.9491364901114e+14
138	18019912 5411 892999 227701866 10.774009316295 3029.893166514316 164 1 1 164 164
139	18025323 7542 1867638 227813546 19.152547724727 3030.450008144466 164 0.097653227245 20.32580970613 679.04956831238 5960.5961610478
140	18032865 10820 890652 227813546 10.725604460364 3030.450008144466 328 0 1 164 164
149	18043685 6022 1404083 229674826 15.110515530563 3074.922483046695 157 2503 4992276 135994705 2.1141807349663e+14
150	18049707 5185 617899 228816630 8.666813126842 3061.457842769162 157 1 1 157 157
151	18054892 7233 1404083 229674826 15.110515530563 3074.922483046695 157 0.097325803374 16.815329882152 752.97030964983 6579.6092902756
152	18062125 10376 615928 229674826 8.61878512217 3074.922483046695 314 0 1 157 157
161	18072501 6487 889951 228813749 10.720044191112 3061.326033401028 170 1881 3814016 130610285 1.8624237545736e+14
162	18078988 5578 1722212 228701861 18.356958571568 3060.75841111845 169 1 1 169 169
163	18084566 7818 889951 228813749 10.720044191112 3061.326033401028 170 0.096579965931 18.133243932542 702.89375640037 5860.7157279083
164	18092384 11365 889951 228813749 10.720044191112 3061.326033401028 339 -1 0 -170 170
173	18103749 6130 609182 229190158 8.382044821627 3065.621145948959 160 808 4666651 138762790 2.2792934600488e+14
174	18109879 5263 1449639 229134469 16.722120750888 3065.283799472254 159 1 1 159 159
175	18115142 7387 609182 229190158 8.382044821627 3065.621145948959 160 0.052022803029 22.233624369568 740.07560620383 6864.9747363534
176	18122529 10730 609182 229190158 8.382044821627 3065.621145948959 319 -1 0 -160 160
185	18133259 6426 753046 229654760 9.249535771472 3074.790515599368 168 823 4215620 163275244 2.92789588036e+14
186	18139685 5555 624081 229272736 8.772801934791 3067.332770601458 168 1 1 168 168
187	18145240 7731 753046 229654760 9.249535771472 3074.790515599368 168 0.047933326383 14.822787156255 813.75916632039 7216.0301371539
188	18152971 11103 620993 229654760 8.718985230818 3074.790515599368 336 0 1 168 168
200	18164074 1149 10050214 226827152 106.101243970045 3025.797606349612 34 1 34 595 13685
212	18165223 1186 1421865 229578270 15.710693147455 3071.060219103279 35 1 35 630 14910
224	18166409 1209 544007 229606239 6.552132600329 3072.540908667729 36 1 36 666 16206
236	18167618 1183 1267452 228561336 13.405571309147 3054.684311592871 35 1 35 630 14910
248	18168801 1181 2164819 228701525 21.775386743307 3060.745566675825 35 1 35 630 14910
260	18169982 1154 7620120 229582639 81.201391574785 3071.277289941352 34 1 34 595 13685
272	18171136 1115 1143347 228065580 12.070299482472 3039.650359723128 33 1 33 561 12529
284	18172251 1117 1518516 223001119 17.720353224328 2984.302776408477 33 1 33 561 12529
296	18173368 1182 7686509 228610164 83.744445836712 3058.023696707583 35 1 35 630 14910
308	18174550 1151 1129267 229679103 11.800301348578 3075.183310693852 34 1 34 595 13685
320	18175701 1184 2457245 227692405 25.520890920392 3029.123610417489 35 1 35 630 14910
332	18176885 1189 10055242 225466642 106.516868241154 3011.792685221449 35 1 35 630 14910
344	18178074 1185 1812483 228527369 19.010188084182 3051.514598734294 35 1 35 630 14910
354	18179259 2778607 486789 229688652 5.039039817117 3076.039039817117 76776 1400 1400 107486400 150480960000
372	20957866 861 6430824 229677064 75 3075 41 1 41 861 23821
393	20958727 108846 529162 229633769 5.099686161747 3072.981940103367 2319 43.729913738053 11385301.470587 5483495126.3467 2.8817161580477e+16
394	21067573 108738 529162 229633769 5.099686161747 3072.981940103367 2319 0.19522282918773 951.33533381492 460295.4224933 202093600.08746
395	21176311 129627 527587 229685402 5.039664815061 3074.719428790364 3055 278966.39735313 586535.31134842 1028383897.5966 3.5921503697403e+14
396	21305938 123642 527587 229685402 5.039664815061 3074.719428790364 3055 25 933.73427554312 562861.38117261 229110657.90173
397	21429580 1111 20179889 224114337 120.03837248622 2880.95837248622 24 1.8660446517827 1.8660446517827 44.785071642786 83.570943418727
398	21430691 1183 20179889 224114337 120.03837248622 2880.95837248622 24 0.0083305564811729 0.0083305564811729 0.19993335554815 0.0016655561108643
399	21431874 120257 526802 229688623 5.03848880622 3075.038611846219 3071 2077600 2089367.2027084 6380326943.0587 1.3255803428549e+16
400	21552131 107981 526802 229688623 5.03848880622 3075.038611846219 3071 175 176 537450.97834717 94058493.378592
401	21660112 120257 526804 229688625 5.03848880622 3075.038611846219 3071 2363200 2656128 7414267107.8346 1.7913072209029e+16
402	21780369 108014 526804 229688625 5.03848880622 3075.038611846219 3071 200 1115 1103774.9750487 522917244.87962
403	21888383 108675 530776 229633767 5.147853489789 3072.981940103367 2315 160.20762452721 11385301.470587 5483656557.5604 2.8816282347836e+16
404	21997058 108592 530776 229633767 5.147853489789 3072.981940103367 2315 0.50064882664752 951.33533381492 460175.33893253 202012640.21435
405	22105650 108458 530686 229633724 5.136848823123 3072.970935436701 2311 160.20783841484 12159499.665311 6088123450.0154 3.7229973016584e+16
406	22214108 108386 530686 229633724 5.136848823123 3072.970935436701 2311 0.50064949504636 1014.0569270578 510601.25737479 260749554.32204
407	22322494 121530 525523 229681731 5.009493472886 3074.410498139552 3070 2325715.8087354 2661984 7411898258.1166 1.7907627293206e+16
408	22444024 109967 525523 229681731 5.009493472886 3074.410498139552 3070 200 1108 1103522.0029111 523508985.16084
409	22553991 117286 526812 229688616 5.038597961692 3075.038597961692 3071 285376 296800 911461376 2.7051847626138e+14
410	22671277 105002 526812 229688616 5.038597961692 3075.038597961692 3071 49 50 153549 7677401
411	22776279 117286 526809 229688613 5.038597961692 3075.038597961692 3071 285600 285600 877077600 2.5049336256e+14
412	22893565 105002 526809 229688613 5.038597961692 3075.038597961692 3071 25 25 76775 1919375
413	22998567 122345 528711 229660067 5.046608930357 3073.824602131837 2609 146.33661915646 293053.34831623 152883254.65467 20771600498216
414	23120912 122254 528711 229660067 5.046608930357 3073.824602131837 2609 0.45730193486393 913.59509141052 475588.08463625 202012023.8981
415	23243166 121578 530684 229662826 5.136848823123 3073.850935436701 2591 128 12694889.586518 6179178862.0815 3.6928739207297e+16
416	23364744 121513 530684 229662826 5.136848823123 3073.850935436701 2591 0.33333333333333 1061.4810517834 522156.5790778 260142257.84367
417	23486257 121174 525525 229681733 5.009493472886 3074.410498139552 3070 2019993.2560567 2087723.8321821 6378260918.684 1.3251574225936e+16
418	23607431 109506 525525 229681733 5.009493472886 3074.410498139552 3070 170.21024188491 175.8419766769 537252.40444686 94019862.974999
423	23716937 121174 525530 229681738 5.009493472886 3074.410498139552 3070 2019993.2560567 2087723.8321821 6378260918.684 1.3251574225936e+16
424	23838111 109506 525530 229681738 5.009493472886 3074.410498139552 3070 170.21024188491 175.8419766769 537252.40444686 94019862.974999
425	23947617 117286 526395 229688575 5.033597961692 3075.033597961692 3071 285600 285600 877077600 2.5049336256e+14
426	24064903 105002 526395 229688575 5.033597961692 3075.033597961692 3071 25 25 76775 1919375
427	24169905 117286 525513 229688479 5.003597961692 3075.003597961692 3071 285376 308224 911461376 2.7051873727693e+14
428	24287191 105002 525513 229688479 5.003597961692 3075.003597961692 3071 49 51 153549 7677403
429	24392193 121524 530665 229662796 5.134527749985 3073.848614363563 2591 128 18785896.585872 6373467752.1686 4.0328168889672e+16
430	24513717 121472 530665 229662796 5.134527749985 3073.848614363563 2591 0.33333333333333 1570.833482529 538358.31735435 283928859.03813
431	24635189 122328 528817 229662792 5.070621162083 3073.848614363563 2609 146.33657632766 293053.34831623 152883263.61222 20771603257198
432	24757517 122243 528817 229662792 5.070621162083 3073.848614363563 2609 0.45730180102393 913.59509141052 475588.11245342 202012050.62642
433	24879760 117286 526778 229688582 5.03836667622 3075.03836667622 3071 2077600 2077824 6380315200 1.3255754495334e+16
434	24997046 105002 526778 229688582 5.03836667622 3075.03836667622 3071 175 176 537450 94058150
435	25102048 1111 20179896 224114344 120.03837829622 2880.95837829622 24 1.8660446517827 1.8660446517827 44.785071642786 83.570943418727
436	25103159 1183 20179896 224114344 120.03837829622 2880.95837829622 24 0.0083305564811729 0.0083305564811729 0.19993335554815 0.0016655561108643
437	25104342 32504 1121139 227700856 10.725604460364 3026.842296406144 693 6.8605168467919 272678.40069692 22759192.349436 2781433096476.1
438	25136846 32559 1121139 227700856 10.725604460364 3026.842296406144 693 0.021439115146225 852.12000217787 71103.516583658 27148251.272059
439	25169405 35936 616235 227866211 6.553292653236 3029.892764456602 766 4.6009534443098 10531002.40472 861964261.15938 3.9575812274397e+15
440	25205341 36039 616235 227866211 6.553292653236 3029.892764456602 766 0.020539970733526 878.17697755454 72261.872959541 27693262.825573
447	25241380 35572 840167 229645985 8.61878512217 3069.654180934363 759 21.635874758922 282373.19010489 25322941.339751 3051824516169.8
448	25276952 35554 840167 229645985 8.61878512217 3069.654180934363 759 0.067612108621631 882.41621907777 79114.888641717 29787307.455396
449	25312506 38719 616345 229645981 6.553292650998 3069.702348232463 826 6.2433812947621 10595892.876686 944147620.61775 4.2936040882393e+15
450	25351225 38796 616345 229645981 6.553292650998 3069.702348232463 826 0.027872237923045 882.99107305715 79103.535981588 30051685.496153
457	25390021 34395 529255 228700949 5.100094333336 3048.611289616002 735 7.2237890170685 284759.95748332 23088411.391893 2660029619880.7
458	25424416 34455 529255 228700949 5.100094333336 3048.611289616002 735 0.022574340678339 889.87486713538 72132.284993792 25961372.297669
459	25458871 37697 529251 228701857 5.100094333336 3048.611289616002 806 3.8625701168033 10714651.673907 874318027.62344 3.8254212559853e+15