file 34433915 1471550916                                        
version 2
run _35off-5-20160818-20:07:22-32018
attr configname _35off
attr datetime 20160818-20:07:22
attr experiment _35off
attr inifile omnetpp.ini
attr iterationvars ""
attr iterationvars2 $repetition=5
attr measurement ""
attr network University
attr processid 32018
attr repetition 5
attr replication #5
attr resultdir results
attr runnumber 5
attr seedset 5

vector 562  University.whostFTP.tcpApp[0]  numActiveSessions:vector  ETV
attr interpolationmode  sample-hold
attr source  sum(connect)
attr title  "number of active sessions, vector"
vector 544  University.whostVideoConf.udpApp[0]  sentPk:vector(packetBytes)  ETV
attr interpolationmode  none
attr source  sentPk
attr title  "packets sent, vector(packetBytes)"
vector 76  University.profLaptop.udpApp[0]  sentPk:vector(packetBytes)  ETV
attr interpolationmode  none
attr source  sentPk
attr title  "packets sent, vector(packetBytes)"
vector 378  University.whttpStudents[21].tcpApp[0]  numActiveSessions:vector  ETV
attr interpolationmode  sample-hold
attr source  sum(connect)
attr title  "number of active sessions, vector"
vector 522  University.whttpStudents[33].tcpApp[0]  numActiveSessions:vector  ETV
attr interpolationmode  sample-hold
attr source  sum(connect)
attr title  "number of active sessions, vector"
vector 543  University.whostVideoConf.udpApp[0]  rcvdPk:vector(packetBytes)  ETV
attr interpolationmode  none
attr source  rcvdPk
attr title  "packets received, vector(packetBytes)"
vector 545  University.whostVideoConf.udpApp[0]  rcvdPkLifetime:vector  ETV
attr interpolationmode  none
attr source  messageAge(rcvdPk)
attr title  "received packet lifetime, vector"
attr unit  s
vector 560  University.whostFTP.tcpApp[0]  sentPk:vector(packetBytes)  ETV
attr interpolationmode  none
attr source  sentPk
attr title  "packets sent, vector(packetBytes)"
vector 75  University.profLaptop.udpApp[0]  rcvdPk:vector(packetBytes)  ETV
attr interpolationmode  none
attr source  rcvdPk
attr title  "packets received, vector(packetBytes)"
vector 77  University.profLaptop.udpApp[0]  rcvdPkLifetime:vector  ETV
attr interpolationmode  none
attr source  messageAge(rcvdPk)
attr title  "received packet lifetime, vector"
attr unit  s
vector 186  University.whttpStudents[5].tcpApp[0]  numActiveSessions:vector  ETV
attr interpolationmode  sample-hold
attr source  sum(connect)
attr title  "number of active sessions, vector"
vector 184  University.whttpStudents[5].tcpApp[0]  sentPk:vector(packetBytes)  ETV
attr interpolationmode  none
attr source  sentPk
attr title  "packets sent, vector(packetBytes)"
vector 94  University.Server.tcpApp[0]  rcvdPk:vector(packetBytes)  ETV
attr interpolationmode  none
attr source  rcvdPk
attr title  "packets received, vector(packetBytes)"
vector 96  University.Server.tcpApp[0]  endToEndDelay:vector  ETV
attr interpolationmode  none
attr source  messageAge(rcvdPk)
attr title  "end-to-end delay, vector"
attr unit  s
vector 95  University.Server.tcpApp[0]  sentPk:vector(packetBytes)  ETV
attr interpolationmode  none
attr source  sentPk
attr title  "packets sent, vector(packetBytes)"
vector 376  University.whttpStudents[21].tcpApp[0]  sentPk:vector(packetBytes)  ETV
attr interpolationmode  none
attr source  sentPk
attr title  "packets sent, vector(packetBytes)"
vector 520  University.whttpStudents[33].tcpApp[0]  sentPk:vector(packetBytes)  ETV
attr interpolationmode  none
attr source  sentPk
attr title  "packets sent, vector(packetBytes)"
vector 183  University.whttpStudents[5].tcpApp[0]  rcvdPk:vector(packetBytes)  ETV
attr interpolationmode  none
attr source  rcvdPk
attr title  "packets received, vector(packetBytes)"
vector 185  University.whttpStudents[5].tcpApp[0]  endToEndDelay:vector  ETV
attr interpolationmode  none
attr source  messageAge(rcvdPk)
attr title  "end-to-end delay, vector"
attr unit  s
vector 222  University.whttpStudents[8].tcpApp[0]  numActiveSessions:vector  ETV
attr interpolationmode  sample-hold
attr source  sum(connect)
attr title  "number of active sessions, vector"
vector 220  University.whttpStudents[8].tcpApp[0]  sentPk:vector(packetBytes)  ETV
attr interpolationmode  none
attr source  sentPk
attr title  "packets sent, vector(packetBytes)"
vector 306  University.whttpStudents[15].tcpApp[0]  numActiveSessions:vector  ETV
attr interpolationmode  sample-hold
attr source  sum(connect)
attr title  "number of active sessions, vector"
vector 304  University.whttpStudents[15].tcpApp[0]  sentPk:vector(packetBytes)  ETV
attr interpolationmode  none
attr source  sentPk
attr title  "packets sent, vector(packetBytes)"
vector 210  University.whttpStudents[7].tcpApp[0]  numActiveSessions:vector  ETV
attr interpolationmode  sample-hold
attr source  sum(connect)
attr title  "number of active sessions, vector"
vector 208  University.whttpStudents[7].tcpApp[0]  sentPk:vector(packetBytes)  ETV
attr interpolationmode  none
attr source  sentPk
attr title  "packets sent, vector(packetBytes)"
vector 486  University.whttpStudents[30].tcpApp[0]  numActiveSessions:vector  ETV
attr interpolationmode  sample-hold
attr source  sum(connect)
attr title  "number of active sessions, vector"
vector 484  University.whttpStudents[30].tcpApp[0]  sentPk:vector(packetBytes)  ETV
attr interpolationmode  none
attr source  sentPk
attr title  "packets sent, vector(packetBytes)"
vector 510  University.whttpStudents[32].tcpApp[0]  numActiveSessions:vector  ETV
attr interpolationmode  sample-hold
attr source  sum(connect)
attr title  "number of active sessions, vector"
vector 508  University.whttpStudents[32].tcpApp[0]  sentPk:vector(packetBytes)  ETV
attr interpolationmode  none
attr source  sentPk
attr title  "packets sent, vector(packetBytes)"
vector 354  University.whttpStudents[19].tcpApp[0]  numActiveSessions:vector  ETV
attr interpolationmode  sample-hold
attr source  sum(connect)
attr title  "number of active sessions, vector"
vector 352  University.whttpStudents[19].tcpApp[0]  sentPk:vector(packetBytes)  ETV
attr interpolationmode  none
attr source  sentPk
attr title  "packets sent, vector(packetBytes)"
vector 351  University.whttpStudents[19].tcpApp[0]  rcvdPk:vector(packetBytes)  ETV
attr interpolationmode  none
attr source  rcvdPk
attr title  "packets received, vector(packetBytes)"
vector 353  University.whttpStudents[19].tcpApp[0]  endToEndDelay:vector  ETV
attr interpolationmode  none
attr source  messageAge(rcvdPk)
attr title  "end-to-end delay, vector"
attr unit  s
vector 426  University.whttpStudents[25].tcpApp[0]  numActiveSessions:vector  ETV
attr interpolationmode  sample-hold
attr source  sum(connect)
attr title  "number of active sessions, vector"
vector 424  University.whttpStudents[25].tcpApp[0]  sentPk:vector(packetBytes)  ETV
attr interpolationmode  none
attr source  sentPk
attr title  "packets sent, vector(packetBytes)"
vector 282  University.whttpStudents[13].tcpApp[0]  numActiveSessions:vector  ETV
attr interpolationmode  sample-hold
attr source  sum(connect)
attr title  "number of active sessions, vector"
vector 534  University.whttpStudents[34].tcpApp[0]  numActiveSessions:vector  ETV
attr interpolationmode  sample-hold
attr source  sum(connect)
attr title  "number of active sessions, vector"
vector 532  University.whttpStudents[34].tcpApp[0]  sentPk:vector(packetBytes)  ETV
attr interpolationmode  none
attr source  sentPk
attr title  "packets sent, vector(packetBytes)"
vector 126  University.whttpStudents[0].tcpApp[0]  numActiveSessions:vector  ETV
attr interpolationmode  sample-hold
attr source  sum(connect)
attr title  "number of active sessions, vector"
vector 390  University.whttpStudents[22].tcpApp[0]  numActiveSessions:vector  ETV
attr interpolationmode  sample-hold
attr source  sum(connect)
attr title  "number of active sessions, vector"
vector 124  University.whttpStudents[0].tcpApp[0]  sentPk:vector(packetBytes)  ETV
attr interpolationmode  none
attr source  sentPk
attr title  "packets sent, vector(packetBytes)"
vector 519  University.whttpStudents[33].tcpApp[0]  rcvdPk:vector(packetBytes)  ETV
attr interpolationmode  none
attr source  rcvdPk
attr title  "packets received, vector(packetBytes)"
vector 521  University.whttpStudents[33].tcpApp[0]  endToEndDelay:vector  ETV
attr interpolationmode  none
attr source  messageAge(rcvdPk)
attr title  "end-to-end delay, vector"
attr unit  s
vector 388  University.whttpStudents[22].tcpApp[0]  sentPk:vector(packetBytes)  ETV
attr interpolationmode  none
attr source  sentPk
attr title  "packets sent, vector(packetBytes)"
vector 150  University.whttpStudents[2].tcpApp[0]  numActiveSessions:vector  ETV
attr interpolationmode  sample-hold
attr source  sum(connect)
attr title  "number of active sessions, vector"
vector 148  University.whttpStudents[2].tcpApp[0]  sentPk:vector(packetBytes)  ETV
attr interpolationmode  none
attr source  sentPk
attr title  "packets sent, vector(packetBytes)"
vector 234  University.whttpStudents[9].tcpApp[0]  numActiveSessions:vector  ETV
attr interpolationmode  sample-hold
attr source  sum(connect)
attr title  "number of active sessions, vector"
vector 123  University.whttpStudents[0].tcpApp[0]  rcvdPk:vector(packetBytes)  ETV
attr interpolationmode  none
attr source  rcvdPk
attr title  "packets received, vector(packetBytes)"
vector 125  University.whttpStudents[0].tcpApp[0]  endToEndDelay:vector  ETV
attr interpolationmode  none
attr source  messageAge(rcvdPk)
attr title  "end-to-end delay, vector"
attr unit  s
vector 280  University.whttpStudents[13].tcpApp[0]  sentPk:vector(packetBytes)  ETV
attr interpolationmode  none
attr source  sentPk
attr title  "packets sent, vector(packetBytes)"
vector 279  University.whttpStudents[13].tcpApp[0]  rcvdPk:vector(packetBytes)  ETV
attr interpolationmode  none
attr source  rcvdPk
attr title  "packets received, vector(packetBytes)"
vector 281  University.whttpStudents[13].tcpApp[0]  endToEndDelay:vector  ETV
attr interpolationmode  none
attr source  messageAge(rcvdPk)
attr title  "end-to-end delay, vector"
attr unit  s
vector 232  University.whttpStudents[9].tcpApp[0]  sentPk:vector(packetBytes)  ETV
attr interpolationmode  none
attr source  sentPk
attr title  "packets sent, vector(packetBytes)"
vector 147  University.whttpStudents[2].tcpApp[0]  rcvdPk:vector(packetBytes)  ETV
attr interpolationmode  none
attr source  rcvdPk
attr title  "packets received, vector(packetBytes)"
vector 149  University.whttpStudents[2].tcpApp[0]  endToEndDelay:vector  ETV
attr interpolationmode  none
attr source  messageAge(rcvdPk)
attr title  "end-to-end delay, vector"
attr unit  s
vector 531  University.whttpStudents[34].tcpApp[0]  rcvdPk:vector(packetBytes)  ETV
attr interpolationmode  none
attr source  rcvdPk
attr title  "packets received, vector(packetBytes)"
vector 533  University.whttpStudents[34].tcpApp[0]  endToEndDelay:vector  ETV
attr interpolationmode  none
attr source  messageAge(rcvdPk)
attr title  "end-to-end delay, vector"
attr unit  s
vector 138  University.whttpStudents[1].tcpApp[0]  numActiveSessions:vector  ETV
attr interpolationmode  sample-hold
attr source  sum(connect)
attr title  "number of active sessions, vector"
vector 136  University.whttpStudents[1].tcpApp[0]  sentPk:vector(packetBytes)  ETV
attr interpolationmode  none
attr source  sentPk
attr title  "packets sent, vector(packetBytes)"
vector 507  University.whttpStudents[32].tcpApp[0]  rcvdPk:vector(packetBytes)  ETV
attr interpolationmode  none
attr source  rcvdPk
attr title  "packets received, vector(packetBytes)"
vector 509  University.whttpStudents[32].tcpApp[0]  endToEndDelay:vector  ETV
attr interpolationmode  none
attr source  messageAge(rcvdPk)
attr title  "end-to-end delay, vector"
attr unit  s
vector 219  University.whttpStudents[8].tcpApp[0]  rcvdPk:vector(packetBytes)  ETV
attr interpolationmode  none
attr source  rcvdPk
attr title  "packets received, vector(packetBytes)"
vector 221  University.whttpStudents[8].tcpApp[0]  endToEndDelay:vector  ETV
attr interpolationmode  none
attr source  messageAge(rcvdPk)
attr title  "end-to-end delay, vector"
attr unit  s
vector 402  University.whttpStudents[23].tcpApp[0]  numActiveSessions:vector  ETV
attr interpolationmode  sample-hold
attr source  sum(connect)
attr title  "number of active sessions, vector"
vector 400  University.whttpStudents[23].tcpApp[0]  sentPk:vector(packetBytes)  ETV
attr interpolationmode  none
attr source  sentPk
attr title  "packets sent, vector(packetBytes)"
vector 162  University.whttpStudents[3].tcpApp[0]  numActiveSessions:vector  ETV
attr interpolationmode  sample-hold
attr source  sum(connect)
attr title  "number of active sessions, vector"
vector 160  University.whttpStudents[3].tcpApp[0]  sentPk:vector(packetBytes)  ETV
attr interpolationmode  none
attr source  sentPk
attr title  "packets sent, vector(packetBytes)"
vector 231  University.whttpStudents[9].tcpApp[0]  rcvdPk:vector(packetBytes)  ETV
attr interpolationmode  none
attr source  rcvdPk
attr title  "packets received, vector(packetBytes)"
vector 233  University.whttpStudents[9].tcpApp[0]  endToEndDelay:vector  ETV
attr interpolationmode  none
attr source  messageAge(rcvdPk)
attr title  "end-to-end delay, vector"
attr unit  s
vector 399  University.whttpStudents[23].tcpApp[0]  rcvdPk:vector(packetBytes)  ETV
attr interpolationmode  none
attr source  rcvdPk
attr title  "packets received, vector(packetBytes)"
vector 401  University.whttpStudents[23].tcpApp[0]  endToEndDelay:vector  ETV
attr interpolationmode  none
attr source  messageAge(rcvdPk)
attr title  "end-to-end delay, vector"
attr unit  s
vector 498  University.whttpStudents[31].tcpApp[0]  numActiveSessions:vector  ETV
attr interpolationmode  sample-hold
attr source  sum(connect)
attr title  "number of active sessions, vector"
vector 496  University.whttpStudents[31].tcpApp[0]  sentPk:vector(packetBytes)  ETV
attr interpolationmode  none
attr source  sentPk
attr title  "packets sent, vector(packetBytes)"
vector 462  University.whttpStudents[28].tcpApp[0]  numActiveSessions:vector  ETV
attr interpolationmode  sample-hold
attr source  sum(connect)
attr title  "number of active sessions, vector"
vector 207  University.whttpStudents[7].tcpApp[0]  rcvdPk:vector(packetBytes)  ETV
attr interpolationmode  none
attr source  rcvdPk
attr title  "packets received, vector(packetBytes)"
vector 209  University.whttpStudents[7].tcpApp[0]  endToEndDelay:vector  ETV
attr interpolationmode  none
attr source  messageAge(rcvdPk)
attr title  "end-to-end delay, vector"
attr unit  s
vector 460  University.whttpStudents[28].tcpApp[0]  sentPk:vector(packetBytes)  ETV
attr interpolationmode  none
attr source  sentPk
attr title  "packets sent, vector(packetBytes)"
vector 258  University.whttpStudents[11].tcpApp[0]  numActiveSessions:vector  ETV
attr interpolationmode  sample-hold
attr source  sum(connect)
attr title  "number of active sessions, vector"
vector 256  University.whttpStudents[11].tcpApp[0]  sentPk:vector(packetBytes)  ETV
attr interpolationmode  none
attr source  sentPk
attr title  "packets sent, vector(packetBytes)"
vector 303  University.whttpStudents[15].tcpApp[0]  rcvdPk:vector(packetBytes)  ETV
attr interpolationmode  none
attr source  rcvdPk
attr title  "packets received, vector(packetBytes)"
vector 305  University.whttpStudents[15].tcpApp[0]  endToEndDelay:vector  ETV
attr interpolationmode  none
attr source  messageAge(rcvdPk)
attr title  "end-to-end delay, vector"
attr unit  s
vector 495  University.whttpStudents[31].tcpApp[0]  rcvdPk:vector(packetBytes)  ETV
attr interpolationmode  none
attr source  rcvdPk
attr title  "packets received, vector(packetBytes)"
vector 497  University.whttpStudents[31].tcpApp[0]  endToEndDelay:vector  ETV
attr interpolationmode  none
attr source  messageAge(rcvdPk)
attr title  "end-to-end delay, vector"
attr unit  s
vector 459  University.whttpStudents[28].tcpApp[0]  rcvdPk:vector(packetBytes)  ETV
attr interpolationmode  none
attr source  rcvdPk
attr title  "packets received, vector(packetBytes)"
vector 461  University.whttpStudents[28].tcpApp[0]  endToEndDelay:vector  ETV
attr interpolationmode  none
attr source  messageAge(rcvdPk)
attr title  "end-to-end delay, vector"
attr unit  s
vector 159  University.whttpStudents[3].tcpApp[0]  rcvdPk:vector(packetBytes)  ETV
attr interpolationmode  none
attr source  rcvdPk
attr title  "packets received, vector(packetBytes)"
vector 161  University.whttpStudents[3].tcpApp[0]  endToEndDelay:vector  ETV
attr interpolationmode  none
attr source  messageAge(rcvdPk)
attr title  "end-to-end delay, vector"
attr unit  s
vector 387  University.whttpStudents[22].tcpApp[0]  rcvdPk:vector(packetBytes)  ETV
attr interpolationmode  none
attr source  rcvdPk
attr title  "packets received, vector(packetBytes)"
vector 389  University.whttpStudents[22].tcpApp[0]  endToEndDelay:vector  ETV
attr interpolationmode  none
attr source  messageAge(rcvdPk)
attr title  "end-to-end delay, vector"
attr unit  s
vector 255  University.whttpStudents[11].tcpApp[0]  rcvdPk:vector(packetBytes)  ETV
attr interpolationmode  none
attr source  rcvdPk
attr title  "packets received, vector(packetBytes)"
vector 257  University.whttpStudents[11].tcpApp[0]  endToEndDelay:vector  ETV
attr interpolationmode  none
attr source  messageAge(rcvdPk)
attr title  "end-to-end delay, vector"
attr unit  s
vector 483  University.whttpStudents[30].tcpApp[0]  rcvdPk:vector(packetBytes)  ETV
attr interpolationmode  none
attr source  rcvdPk
attr title  "packets received, vector(packetBytes)"
vector 485  University.whttpStudents[30].tcpApp[0]  endToEndDelay:vector  ETV
attr interpolationmode  none
attr source  messageAge(rcvdPk)
attr title  "end-to-end delay, vector"
attr unit  s
vector 438  University.whttpStudents[26].tcpApp[0]  numActiveSessions:vector  ETV
attr interpolationmode  sample-hold
attr source  sum(connect)
attr title  "number of active sessions, vector"
vector 436  University.whttpStudents[26].tcpApp[0]  sentPk:vector(packetBytes)  ETV
attr interpolationmode  none
attr source  sentPk
attr title  "packets sent, vector(packetBytes)"
vector 270  University.whttpStudents[12].tcpApp[0]  numActiveSessions:vector  ETV
attr interpolationmode  sample-hold
attr source  sum(connect)
attr title  "number of active sessions, vector"
vector 268  University.whttpStudents[12].tcpApp[0]  sentPk:vector(packetBytes)  ETV
attr interpolationmode  none
attr source  sentPk
attr title  "packets sent, vector(packetBytes)"
vector 97  University.Server.tcpApp[1]  rcvdPk:vector(packetBytes)  ETV
attr interpolationmode  none
attr source  rcvdPk
attr title  "packets received, vector(packetBytes)"
vector 99  University.Server.tcpApp[1]  endToEndDelay:vector  ETV
attr interpolationmode  none
attr source  messageAge(rcvdPk)
attr title  "end-to-end delay, vector"
attr unit  s
vector 98  University.Server.tcpApp[1]  sentPk:vector(packetBytes)  ETV
attr interpolationmode  none
attr source  sentPk
attr title  "packets sent, vector(packetBytes)"
vector 198  University.whttpStudents[6].tcpApp[0]  numActiveSessions:vector  ETV
attr interpolationmode  sample-hold
attr source  sum(connect)
attr title  "number of active sessions, vector"
vector 294  University.whttpStudents[14].tcpApp[0]  numActiveSessions:vector  ETV
attr interpolationmode  sample-hold
attr source  sum(connect)
attr title  "number of active sessions, vector"
vector 292  University.whttpStudents[14].tcpApp[0]  sentPk:vector(packetBytes)  ETV
attr interpolationmode  none
attr source  sentPk
attr title  "packets sent, vector(packetBytes)"
vector 559  University.whostFTP.tcpApp[0]  rcvdPk:vector(packetBytes)  ETV
attr interpolationmode  none
attr source  rcvdPk
attr title  "packets received, vector(packetBytes)"
vector 561  University.whostFTP.tcpApp[0]  endToEndDelay:vector  ETV
attr interpolationmode  none
attr source  messageAge(rcvdPk)
attr title  "end-to-end delay, vector"
attr unit  s
vector 135  University.whttpStudents[1].tcpApp[0]  rcvdPk:vector(packetBytes)  ETV
attr interpolationmode  none
attr source  rcvdPk
attr title  "packets received, vector(packetBytes)"
vector 137  University.whttpStudents[1].tcpApp[0]  endToEndDelay:vector  ETV
attr interpolationmode  none
attr source  messageAge(rcvdPk)
attr title  "end-to-end delay, vector"
attr unit  s
vector 196  University.whttpStudents[6].tcpApp[0]  sentPk:vector(packetBytes)  ETV
attr interpolationmode  none
attr source  sentPk
attr title  "packets sent, vector(packetBytes)"
vector 366  University.whttpStudents[20].tcpApp[0]  numActiveSessions:vector  ETV
attr interpolationmode  sample-hold
attr source  sum(connect)
attr title  "number of active sessions, vector"
vector 364  University.whttpStudents[20].tcpApp[0]  sentPk:vector(packetBytes)  ETV
attr interpolationmode  none
attr source  sentPk
attr title  "packets sent, vector(packetBytes)"
vector 267  University.whttpStudents[12].tcpApp[0]  rcvdPk:vector(packetBytes)  ETV
attr interpolationmode  none
attr source  rcvdPk
attr title  "packets received, vector(packetBytes)"
vector 269  University.whttpStudents[12].tcpApp[0]  endToEndDelay:vector  ETV
attr interpolationmode  none
attr source  messageAge(rcvdPk)
attr title  "end-to-end delay, vector"
attr unit  s
vector 246  University.whttpStudents[10].tcpApp[0]  numActiveSessions:vector  ETV
attr interpolationmode  sample-hold
attr source  sum(connect)
attr title  "number of active sessions, vector"
vector 375  University.whttpStudents[21].tcpApp[0]  rcvdPk:vector(packetBytes)  ETV
attr interpolationmode  none
attr source  rcvdPk
attr title  "packets received, vector(packetBytes)"
vector 377  University.whttpStudents[21].tcpApp[0]  endToEndDelay:vector  ETV
attr interpolationmode  none
attr source  messageAge(rcvdPk)
attr title  "end-to-end delay, vector"
attr unit  s
vector 291  University.whttpStudents[14].tcpApp[0]  rcvdPk:vector(packetBytes)  ETV
attr interpolationmode  none
attr source  rcvdPk
attr title  "packets received, vector(packetBytes)"
vector 293  University.whttpStudents[14].tcpApp[0]  endToEndDelay:vector  ETV
attr interpolationmode  none
attr source  messageAge(rcvdPk)
attr title  "end-to-end delay, vector"
attr unit  s
vector 244  University.whttpStudents[10].tcpApp[0]  sentPk:vector(packetBytes)  ETV
attr interpolationmode  none
attr source  sentPk
attr title  "packets sent, vector(packetBytes)"
vector 195  University.whttpStudents[6].tcpApp[0]  rcvdPk:vector(packetBytes)  ETV
attr interpolationmode  none
attr source  rcvdPk
attr title  "packets received, vector(packetBytes)"
vector 197  University.whttpStudents[6].tcpApp[0]  endToEndDelay:vector  ETV
attr interpolationmode  none
attr source  messageAge(rcvdPk)
attr title  "end-to-end delay, vector"
attr unit  s
vector 450  University.whttpStudents[27].tcpApp[0]  numActiveSessions:vector  ETV
attr interpolationmode  sample-hold
attr source  sum(connect)
attr title  "number of active sessions, vector"
vector 448  University.whttpStudents[27].tcpApp[0]  sentPk:vector(packetBytes)  ETV
attr interpolationmode  none
attr source  sentPk
attr title  "packets sent, vector(packetBytes)"
vector 414  University.whttpStudents[24].tcpApp[0]  numActiveSessions:vector  ETV
attr interpolationmode  sample-hold
attr source  sum(connect)
attr title  "number of active sessions, vector"
vector 412  University.whttpStudents[24].tcpApp[0]  sentPk:vector(packetBytes)  ETV
attr interpolationmode  none
attr source  sentPk
attr title  "packets sent, vector(packetBytes)"
vector 447  University.whttpStudents[27].tcpApp[0]  rcvdPk:vector(packetBytes)  ETV
attr interpolationmode  none
attr source  rcvdPk
attr title  "packets received, vector(packetBytes)"
vector 449  University.whttpStudents[27].tcpApp[0]  endToEndDelay:vector  ETV
attr interpolationmode  none
attr source  messageAge(rcvdPk)
attr title  "end-to-end delay, vector"
attr unit  s
vector 243  University.whttpStudents[10].tcpApp[0]  rcvdPk:vector(packetBytes)  ETV
attr interpolationmode  none
attr source  rcvdPk
attr title  "packets received, vector(packetBytes)"
vector 245  University.whttpStudents[10].tcpApp[0]  endToEndDelay:vector  ETV
attr interpolationmode  none
attr source  messageAge(rcvdPk)
attr title  "end-to-end delay, vector"
attr unit  s
vector 318  University.whttpStudents[16].tcpApp[0]  numActiveSessions:vector  ETV
attr interpolationmode  sample-hold
attr source  sum(connect)
attr title  "number of active sessions, vector"
vector 316  University.whttpStudents[16].tcpApp[0]  sentPk:vector(packetBytes)  ETV
attr interpolationmode  none
attr source  sentPk
attr title  "packets sent, vector(packetBytes)"
vector 435  University.whttpStudents[26].tcpApp[0]  rcvdPk:vector(packetBytes)  ETV
attr interpolationmode  none
attr source  rcvdPk
attr title  "packets received, vector(packetBytes)"
vector 437  University.whttpStudents[26].tcpApp[0]  endToEndDelay:vector  ETV
attr interpolationmode  none
attr source  messageAge(rcvdPk)
attr title  "end-to-end delay, vector"
attr unit  s
vector 363  University.whttpStudents[20].tcpApp[0]  rcvdPk:vector(packetBytes)  ETV
attr interpolationmode  none
attr source  rcvdPk
attr title  "packets received, vector(packetBytes)"
vector 365  University.whttpStudents[20].tcpApp[0]  endToEndDelay:vector  ETV
attr interpolationmode  none
attr source  messageAge(rcvdPk)
attr title  "end-to-end delay, vector"
attr unit  s
vector 315  University.whttpStudents[16].tcpApp[0]  rcvdPk:vector(packetBytes)  ETV
attr interpolationmode  none
attr source  rcvdPk
attr title  "packets received, vector(packetBytes)"
vector 317  University.whttpStudents[16].tcpApp[0]  endToEndDelay:vector  ETV
attr interpolationmode  none
attr source  messageAge(rcvdPk)
attr title  "end-to-end delay, vector"
attr unit  s
vector 330  University.whttpStudents[17].tcpApp[0]  numActiveSessions:vector  ETV
attr interpolationmode  sample-hold
attr source  sum(connect)
attr title  "number of active sessions, vector"
vector 328  University.whttpStudents[17].tcpApp[0]  sentPk:vector(packetBytes)  ETV
attr interpolationmode  none
attr source  sentPk
attr title  "packets sent, vector(packetBytes)"
vector 411  University.whttpStudents[24].tcpApp[0]  rcvdPk:vector(packetBytes)  ETV
attr interpolationmode  none
attr source  rcvdPk
attr title  "packets received, vector(packetBytes)"
vector 413  University.whttpStudents[24].tcpApp[0]  endToEndDelay:vector  ETV
attr interpolationmode  none
attr source  messageAge(rcvdPk)
attr title  "end-to-end delay, vector"
attr unit  s
vector 327  University.whttpStudents[17].tcpApp[0]  rcvdPk:vector(packetBytes)  ETV
attr interpolationmode  none
attr source  rcvdPk
attr title  "packets received, vector(packetBytes)"
vector 329  University.whttpStudents[17].tcpApp[0]  endToEndDelay:vector  ETV
attr interpolationmode  none
attr source  messageAge(rcvdPk)
attr title  "end-to-end delay, vector"
attr unit  s
vector 423  University.whttpStudents[25].tcpApp[0]  rcvdPk:vector(packetBytes)  ETV
attr interpolationmode  none
attr source  rcvdPk
attr title  "packets received, vector(packetBytes)"
vector 425  University.whttpStudents[25].tcpApp[0]  endToEndDelay:vector  ETV
attr interpolationmode  none
attr source  messageAge(rcvdPk)
attr title  "end-to-end delay, vector"
attr unit  s
vector 474  University.whttpStudents[29].tcpApp[0]  numActiveSessions:vector  ETV
attr interpolationmode  sample-hold
attr source  sum(connect)
attr title  "number of active sessions, vector"
vector 472  University.whttpStudents[29].tcpApp[0]  sentPk:vector(packetBytes)  ETV
attr interpolationmode  none
attr source  sentPk
attr title  "packets sent, vector(packetBytes)"
vector 174  University.whttpStudents[4].tcpApp[0]  numActiveSessions:vector  ETV
attr interpolationmode  sample-hold
attr source  sum(connect)
attr title  "number of active sessions, vector"
vector 172  University.whttpStudents[4].tcpApp[0]  sentPk:vector(packetBytes)  ETV
attr interpolationmode  none
attr source  sentPk
attr title  "packets sent, vector(packetBytes)"
vector 471  University.whttpStudents[29].tcpApp[0]  rcvdPk:vector(packetBytes)  ETV
attr interpolationmode  none
attr source  rcvdPk
attr title  "packets received, vector(packetBytes)"
vector 473  University.whttpStudents[29].tcpApp[0]  endToEndDelay:vector  ETV
attr interpolationmode  none
attr source  messageAge(rcvdPk)
attr title  "end-to-end delay, vector"
attr unit  s
vector 342  University.whttpStudents[18].tcpApp[0]  numActiveSessions:vector  ETV
attr interpolationmode  sample-hold
attr source  sum(connect)
attr title  "number of active sessions, vector"
vector 340  University.whttpStudents[18].tcpApp[0]  sentPk:vector(packetBytes)  ETV
attr interpolationmode  none
attr source  sentPk
attr title  "packets sent, vector(packetBytes)"
vector 171  University.whttpStudents[4].tcpApp[0]  rcvdPk:vector(packetBytes)  ETV
attr interpolationmode  none
attr source  rcvdPk
attr title  "packets received, vector(packetBytes)"
vector 173  University.whttpStudents[4].tcpApp[0]  endToEndDelay:vector  ETV
attr interpolationmode  none
attr source  messageAge(rcvdPk)
attr title  "end-to-end delay, vector"
attr unit  s
vector 339  University.whttpStudents[18].tcpApp[0]  rcvdPk:vector(packetBytes)  ETV
attr interpolationmode  none
attr source  rcvdPk
attr title  "packets received, vector(packetBytes)"
vector 341  University.whttpStudents[18].tcpApp[0]  endToEndDelay:vector  ETV
attr interpolationmode  none
attr source  messageAge(rcvdPk)
attr title  "end-to-end delay, vector"
attr unit  s
75	29394 3974255 105904 2692350144 1.042876726072 4390.706602297619 109706 1400 1400 153588400 215023760000
76	4003649 3988140 151 2692329824 0.034829292139 4390.674829292139 109767 1400 1400 153673800 215143320000
77	7991789 5059591 105904 2692324831 1.042876726072 4390.666489220846 109705 0.016345622643 1.032826921493 2017.8002683253 48.495346884686
94	13051380 203381 203928 2692348183 1.323046891038 4390.703470660728 6127 1 1 6127 6127