file 262960 1471515717                                          
version 2
run General-0-20160818-12:21:55-25459
attr configname General
attr datetime 20160818-12:21:55
attr experiment General
attr inifile omnetpp.ini
attr iterationvars ""
attr iterationvars2 $repetition=0
attr measurement ""
attr network University
attr processid 25459
attr repetition 0
attr replication #0
attr resultdir results
attr runnumber 0
attr seedset 0

vector 142  University.whostFTP.tcpApp[0]  numActiveSessions:vector  ETV
attr interpolationmode  sample-hold
attr source  sum(connect)
attr title  "number of active sessions, vector"
vector 76  University.profLaptop.udpApp[0]  sentPk:vector(packetBytes)  ETV
attr interpolationmode  none
attr source  sentPk
attr title  "packets sent, vector(packetBytes)"
vector 124  University.whostVideoConf.udpApp[0]  sentPk:vector(packetBytes)  ETV
attr interpolationmode  none
attr source  sentPk
attr title  "packets sent, vector(packetBytes)"
vector 123  University.whostVideoConf.udpApp[0]  rcvdPk:vector(packetBytes)  ETV
attr interpolationmode  none
attr source  rcvdPk
attr title  "packets received, vector(packetBytes)"
vector 125  University.whostVideoConf.udpApp[0]  rcvdPkLifetime:vector  ETV
attr interpolationmode  none
attr source  messageAge(rcvdPk)
attr title  "received packet lifetime, vector"
attr unit  s
vector 75  University.profLaptop.udpApp[0]  rcvdPk:vector(packetBytes)  ETV
attr interpolationmode  none
attr source  rcvdPk
attr title  "packets received, vector(packetBytes)"
vector 77  University.profLaptop.udpApp[0]  rcvdPkLifetime:vector  ETV
attr interpolationmode  none
attr source  messageAge(rcvdPk)
attr title  "received packet lifetime, vector"
attr unit  s
vector 140  University.whostFTP.tcpApp[0]  sentPk:vector(packetBytes)  ETV
attr interpolationmode  none
attr source  sentPk
attr title  "packets sent, vector(packetBytes)"
vector 97  University.Server.tcpApp[1]  rcvdPk:vector(packetBytes)  ETV
attr interpolationmode  none
attr source  rcvdPk
attr title  "packets received, vector(packetBytes)"
vector 99  University.Server.tcpApp[1]  endToEndDelay:vector  ETV
attr interpolationmode  none
attr source  messageAge(rcvdPk)
attr title  "end-to-end delay, vector"
attr unit  s
vector 98  University.Server.tcpApp[1]  sentPk:vector(packetBytes)  ETV
attr interpolationmode  none
attr source  sentPk
attr title  "packets sent, vector(packetBytes)"
vector 139  University.whostFTP.tcpApp[0]  rcvdPk:vector(packetBytes)  ETV
attr interpolationmode  none
attr source  rcvdPk
attr title  "packets received, vector(packetBytes)"
vector 141  University.whostFTP.tcpApp[0]  endToEndDelay:vector  ETV
attr interpolationmode  none
attr source  messageAge(rcvdPk)
attr title  "end-to-end delay, vector"
attr unit  s
75	2701 38323 2976 469310 1.067840691763 50.213099251634 1255 1400 1400 1757000 2459800000
76	41024 38340 28 470613 0.028607574598 50.228607574598 1256 1400 1400 1758400 2461760000
77	79364 50859 2976 469310 1.067840691763 50.213099251634 1255 0.016345620634 1.03352286697 34.529033386969 10.303954981777
97	130223 168 90655 447967 10.598980419252 49.40698420087 5 1048576 1048576 5242880 5497558138880
98	130391 138 90655 447967 10.598980419252 49.40698420087 5 1 1 5 5
99	130529 204 90655 447967 10.598980419252 49.40698420087 5 8.504293083359 10.094592625066 47.607238950297 454.76229320723
123	130733 39610 1336 472047 1.035751872729 50.245371304834 1256 1400 1400 1758400 2461760000
124	170343 39597 39 471100 0.034317824793 50.234317824793 1256 1400 1400 1758400 2461760000
125	209940 52164 1336 472047 1.035751872729 50.245371304834 1256 0.016347060634 1.007144298131 33.873419813303 9.5050334032024
139	262104 143 92060 449410 10.636486204313 49.44625077599 5 1 1 5 5
140	262247 206 3116 450047 1.072661053554 49.590260823148 6 1048576 1048576 6291456 6597069766656
141	262453 209 92060 449410 10.636486204313 49.44625077599 5 8.543559658479 10.132906352388 47.797603533804 458.39205451534
142	262662 298 23 449754 0 49.518432769594 11 0 1 6 6
